/*--------------------------------*- C++ -*----------------------------------*\
| =========                 |                                                 |
| \\      /  F ield         | OpenFOAM: The Open Source CFD Toolbox           |
|  \\    /   O peration     | Version:  4.0                                   |
|   \\  /    A nd           | Web:      www.OpenFOAM.org                      |
|    \\/     M anipulation  |                                                 |
\*---------------------------------------------------------------------------*/
FoamFile
{
    version     2.0;
    format      ascii;
    class       surfaceScalarField;
    location    "859";
    object      snGradRho;
}
// * * * * * * * * * * * * * * * * * * * * * * * * * * * * * * * * * * * * * //

dimensions      [1 -4 0 0 0 0 0];

internalField   nonuniform List<scalar> 
9850
(
20.808253
-0.64790982
20.11234
-0.67705191
19.300739
-0.70714918
18.371412
-0.73725615
17.326239
-0.76616319
16.171794
-0.79240351
14.919929
-0.81428868
13.588059
-0.82997951
12.199006
-0.83759695
10.78031
-0.83537254
9.3629488
-0.82183085
7.9795179
-0.79598749
6.6619995
-0.75753688
5.4393801
-0.70699722
4.3353886
-0.64577813
3.3667291
-0.57614201
2.5420597
-0.50104566
1.8618728
-0.42387156
1.3192669
-0.34808326
0.90143763
-0.27686071
0.59160296
-0.21277953
0.37103324
-0.15759023
0.22089555
-0.11213023
0.12371054
-0.076370404
0.064329942
-0.049570354
0.030437882
-0.03049864
0.012642162
-0.017671065
0.0042536121
-0.0095671089
0.00086133064
-0.0047976847
-0.00019065915
-0.0022112915
-0.00033134614
-0.00093805983
-0.00022250961
-0.00038117395
-0.00010769643
-0.00017212808
-4.0842501e-05
-0.00010921399
-1.2097089e-05
-9.6808214e-05
-2.6039733e-06
-9.7146153e-05
-2.9143635e-07
-9.8756868e-05
5.2099069e-08
-9.9580225e-05
4.5264132e-08
-9.9844423e-05
2.4397148e-08
-9.9903617e-05
1.7942755e-08
-9.9912913e-05
1.6596793e-08
-9.9914378e-05
1.7775873e-08
-9.9915795e-05
1.5635231e-08
-9.9916947e-05
2.2002933e-08
-9.9919418e-05
9.8108544e-09
-9.9921652e-05
4.4239352e-09
-9.9930451e-05
-3.8024818e-09
-9.9923797e-05
5.0309168e-07
-9.983665e-05
-0.00010011769
16.383537
-0.16621227
15.958339
-0.17380182
15.52344
-0.18206439
15.074611
-0.19111474
14.605837
-0.20105313
14.109318
-0.21194006
13.57574
-0.22376261
12.994862
-0.23639395
12.35647
-0.2495503
11.651705
-0.26275241
10.874657
-0.27530224
10.024075
-0.28628707
9.1049011
-0.29462351
8.1292949
-0.299149
7.1167971
-0.29875996
6.0933697
-0.29258238
5.0892422
-0.28014644
4.1357682
-0.26152651
3.2617895
-0.23740625
2.4902029
-0.209041
1.8354444
-0.17811344
1.3024007
-0.14650823
0.88688686
-0.1160544
0.57743348
-0.088292411
0.35784275
-0.064312023
0.20989651
-0.044683768
0.11570438
-0.029481003
0.059391637
-0.018370966
0.028042166
-0.010745156
0.011972848
-0.0058598897
0.004504816
-0.0029630222
0.0014277779
-0.0013895996
0.00034379486
-0.00061712128
4.0087411e-05
-0.00028009409
-1.410113e-05
-0.00015238963
-1.1287e-05
-0.00011177858
-4.3262558e-06
-0.00010158264
-1.1248266e-06
-9.9852886e-05
-1.9444619e-07
-9.979536e-05
-9.8217216e-09
-9.9874229e-05
1.3040829e-08
-9.9905529e-05
1.2285869e-08
-9.9912173e-05
1.4590401e-08
-9.9914352e-05
9.4238868e-09
-9.9913779e-05
1.6898763e-08
-9.9916232e-05
-8.4675568e-09
-9.9916264e-05
1.6988845e-08
-9.991683e-05
1.4579084e-07
-9.9880691e-05
6.4547435e-08
-9.9896001e-05
-0.00010015691
15.231196
-0.084671719
14.817946
-0.08851599
14.38796
-0.092651128
13.941154
-0.097098998
13.47716
-0.10188311
12.995151
-0.1070271
12.493649
-0.11255118
11.97033
-0.11846531
11.421905
-0.12475779
10.844135
-0.13137816
10.232099
-0.13821455
9.5807968
-0.1450672
8.8861557
-0.15162331
8.1463887
-0.15744134
7.3635423
-0.16195591
6.5449008
-0.16451413
5.7038055
-0.16444952
4.8594544
-0.16118964
4.0354229
-0.15437961
3.2569899
-0.14399156
2.547754
-0.13038519
1.9263272
-0.1142938
1.4039265
-0.096730726
0.98341975
-0.078836839
0.65992069
-0.061708458
0.42258421
-0.04624809
0.2569965
-0.033068391
0.14755156
-0.02245975
0.07938224
-0.014414197
0.039647363
-0.0086886151
0.018168884
-0.0048884605
0.0075260155
-0.0025551987
0.0027624081
-0.0012434083
0.00087317579
-0.00057644506
0.00022673016
-0.00027433847
4.3677152e-05
-0.00015464767
4.1503149e-06
-0.00011413449
-8.685663e-07
-0.00010279666
-5.1382701e-07
-0.00010031036
-1.2504184e-07
-9.9930676e-05
-9.1940665e-09
-9.990796e-05
5.6589494e-09
-9.9913875e-05
1.6174602e-08
-9.9917523e-05
3.2574561e-09
-9.9917419e-05
1.6826206e-08
-9.9920509e-05
-9.6440684e-09
-9.9920297e-05
8.5230236e-08
-9.9913632e-05
1.1951013e-07
-9.9896248e-05
-3.4257931e-07
-9.9981817e-05
-0.00010003064
14.647511
-0.059529174
14.247218
-0.062227095
13.829919
-0.065121896
13.395535
-0.068220173
12.943869
-0.071526092
12.474557
-0.075040203
11.987002
-0.078757821
11.480313
-0.082666786
10.953256
-0.086744295
10.40422
-0.09095241
9.8312523
-0.095231716
9.2321848
-0.099492752
8.6049338
-0.10360527
7.9480223
-0.10738653
7.2613618
-0.11059165
6.5472465
-0.11291124
5.8114002
-0.1139833
5.0637773
-0.11342591
4.3187466
-0.11089296
3.5943328
-0.10614699
2.9104173
-0.099133276
2.2861528
-0.09003198
1.7371824
-0.07926675
1.273402
-0.06745976
0.89785505
-0.055341318
0.60696909
-0.043638105
0.39191209
-0.032969874
0.24056403
-0.023777943
0.13955333
-0.016295107
0.07595121
-0.010553484
0.038431621
-0.0064197066
0.017881787
-0.0036459038
0.0075487465
-0.0019266309
0.0028439879
-0.00095304184
0.00093651945
-0.00045585606
0.00026207516
-0.00023031403
5.9710768e-05
-0.0001410008
1.0207205e-05
-0.00011075952
1.023711e-06
-0.00010222672
-4.1420484e-08
-0.00010028973
-2.8988326e-08
-9.995634e-05
-5.4385715e-09
-9.9918096e-05
1.6461716e-08
-9.991781e-05
-4.5088268e-09
-9.9919124e-05
1.7310397e-08
-9.99211e-05
4.2010147e-09
-9.9920124e-05
1.1805611e-07
-9.9910122e-05
-2.7374571e-08
-9.9924051e-05
-4.1875935e-07
-0.00010000268
-9.9995643e-05
14.237879
-0.046050073
13.84768
-0.048134574
13.441201
-0.050369768
13.0185
-0.052759513
12.579552
-0.055305309
12.124206
-0.05800524
11.652132
-0.060852577
11.162783
-0.063833962
10.655367
-0.066927115
10.128851
-0.070097985
9.5820029
-0.073297323
9.0135073
-0.076456678
8.4221614
-0.079483937
7.8071921
-0.082258766
7.1687129
-0.084628764
6.5083216
-0.086407903
5.8297971
-0.08737984
5.1397741
-0.087309496
4.4481881
-0.085966188
3.7682238
-0.083159335
3.1155399
-0.078783101
2.5067068
-0.072860124
1.9570759
-0.06556994
1.4785664
-0.057248452
1.077967
-0.048352531
0.75621835
-0.039396046
0.50881065
-0.030874202
0.32707108
-0.023196391
0.19989299
-0.016642507
0.11544224
-0.011347718
0.062520148
-0.0073117418
0.03145438
-0.0044246141
0.014535528
-0.0025014181
0.006087412
-0.001320469
0.0022740266
-0.00066011652
0.00074354396
-0.00032858909
0.00020790667
-0.00018150916
4.8218409e-05
-0.00012486423
8.8675907e-06
-0.00010630195
1.185833e-06
-0.00010124579
9.8992104e-08
-0.00010013397
-4.568047e-09
-9.9944836e-05
1.2828136e-08
-9.9921994e-05
-9.4762055e-09
-9.9921881e-05
1.9540234e-08
-9.9921678e-05
2.4976942e-08
-9.9919731e-05
9.175409e-08
-9.991379e-05
-1.6234743e-07
-9.9945507e-05
-4.07778e-07
-9.9993559e-05
-9.9935439e-05
13.921384
-0.037543771
13.53918
-0.039241544
13.141378
-0.041061938
12.728156
-0.043008187
12.299643
-0.045081654
11.85587
-0.047280988
11.396725
-0.049601
10.921908
-0.052031208
10.430905
-0.054553991
9.9229764
-0.05714232
9.3971964
-0.05975707
8.8525371
-0.062344015
8.2880363
-0.0648307
7.7030564
-0.067123595
7.0976504
-0.069106154
6.473032
-0.070638732
5.8321188
-0.071561657
5.1800778
-0.071703071
4.5247421
-0.070893138
3.8767238
-0.068985515
3.2490304
-0.065885054
2.6560653
-0.06157757
2.1120554
-0.056154016
1.6291737
-0.049819739
1.2158069
-0.042881568
0.87543951
-0.035711981
0.60645336
-0.028697863
0.40283876
-0.022187201
0.25553682
-0.016447136
0.15399895
-0.011641438
0.08759282
-0.0078279847
0.04663682
-0.0049713907
0.023010391
-0.0029645275
0.010395265
-0.0016542099
0.0042400474
-0.00086822148
0.0015364208
-0.00044094902
0.00048549239
-0.00023367658
0.00013090805
-0.00014545624
2.9342641e-05
-0.00011311182
5.2786318e-06
-0.0001030996
7.3190102e-07
-0.00010054062
6.4915449e-08
-0.00010001521
1.3140915e-08
-9.993139e-05
-8.9667117e-09
-9.9922964e-05
2.3989321e-08
-9.9920692e-05
3.7318891e-08
-9.9918562e-05
3.1861614e-08
-9.9920621e-05
-2.4483202e-07
-9.9954196e-05
-3.1708586e-07
-9.9974002e-05
-9.9906363e-05
13.663607
-0.031417711
13.28793
-0.032837043
12.897196
-0.034358756
12.491681
-0.035985642
12.071633
-0.037719038
11.637231
-0.039558167
11.188536
-0.041499272
10.72545
-0.043534481
10.247679
-0.04565035
9.7547197
-0.047826064
9.245873
-0.050031275
8.7203111
-0.052223634
8.1772062
-0.054346198
7.6159445
-0.056324995
7.0364362
-0.058067316
6.4395219
-0.059461474
5.8274513
-0.060379078
5.2043784
-0.060680976
4.5767706
-0.060227925
3.9535935
-0.058896505
3.3461113
-0.056599589
2.767181
-0.053308758
2.230025
-0.049073885
1.7466364
-0.044033527
1.3261465
-0.038410307
0.97356747
-0.032488927
0.68925284
-0.02658001
0.4691981
-0.020978296
0.30604069
-0.015925755
0.19042985
-0.01158786
0.11240033
-0.0080459183
0.06247976
-0.005303082
0.032413643
-0.0032989342
0.015522711
-0.0019279424
0.0067738546
-0.0010591319
0.0026537828
-0.0005557228
0.00091781184
-0.00029303373
0.00027499318
-0.00017163602
6.9887333e-05
-0.00012283716
1.4698726e-05
-0.00010609676
2.4900855e-06
-0.00010129357
3.1990252e-07
-0.00010016618
3.6440881e-08
-9.9954718e-05
-3.2572328e-09
-9.9924528e-05
2.8858059e-08
-9.9919177e-05
3.3041709e-08
-9.9917801e-05
-3.1539571e-08
-9.9926324e-05
-2.7883014e-07
-9.9954449e-05
-2.1153958e-07
-9.9954736e-05
-9.990022e-05
13.448106
-0.026972264
13.077905
-0.028189645
12.693083
-0.029494848
12.29399
-0.030890417
11.880965
-0.032377724
11.454299
-0.033956448
11.014185
-0.035623867
10.56068
-0.037373945
10.093663
-0.039196151
9.6128164
-0.041074001
9.1176308
-0.042983282
8.6074467
-0.044890027
8.0815584
-0.046748319
7.5393884
-0.048498187
6.9807507
-0.05006398
6.406205
-0.051353849
5.817487
-0.052261172
5.2179714
-0.052668887
4.6130837
-0.052457683
4.010541
-0.051518519
3.4202792
-0.049769069
2.8539435
-0.047172198
2.3238967
-0.043752897
1.8418372
-0.039608823
1.4172763
-0.034909648
1.0562336
-0.029882554
0.76049275
-0.024785238
0.52760916
-0.019872147
0.35162834
-0.015362215
0.22426692
-0.011415661
0.13621993
-0.0081237296
0.078301264
-0.0055107357
0.042252312
-0.0035445421
0.021190453
-0.0021510069
0.0097591664
-0.001229375
0.0040698841
-0.00066748152
0.0015127154
-0.00035628165
0.00049237815
-0.00020228614
0.00013767792
-0.00013541179
3.238013e-05
-0.00011040293
6.2627393e-06
-0.00010250474
9.631645e-07
-0.00010044057
1.1992256e-07
-0.00010000321
1.0194937e-08
-9.9929592e-05
3.2001649e-08
-9.991819e-05
1.5337363e-08
-9.9918133e-05
-8.4647785e-08
-9.9929576e-05
-2.7932322e-07
-9.9950016e-05
-1.2647182e-07
-9.9937737e-05
-9.9894223e-05
13.263268
-0.023542729
12.897762
-0.024604333
12.517991
-0.025742479
12.124365
-0.026959465
11.717295
-0.028256636
11.29716
-0.029633955
10.864261
-0.031089435
10.418778
-0.032618383
9.9607315
-0.034212441
9.489956
-0.035858373
9.0060957
-0.037536591
8.5086347
-0.039219445
7.9969762
-0.040869339
7.4705888
-0.042436871
6.9292307
-0.043859286
6.3732614
-0.045059761
5.8040301
-0.045948184
5.2243082
-0.046424272
4.6386985
-0.046383858
4.0539151
-0.045728889
3.4788068
-0.044380978
2.9239968
-0.042297156
2.401076
-0.03948507
1.9213939
-0.036013616
1.494643
-0.032014852
1.1275454
-0.027674395
0.82297509
-0.023210623
0.57974726
-0.01884668
0.39310334
-0.014781922
0.25571558
-0.011169619
0.15891195
-0.0081052192
0.093823142
-0.0056256767
0.052252759
-0.0037170981
0.02720278
-0.0023266744
0.013091302
-0.0013756049
0.0057474969
-0.00077150494
0.0022673629
-0.00042010433
0.00079028425
-0.00023592487
0.00023895179
-0.00015048896
6.1454816e-05
-0.00011607307
1.31702e-05
-0.00010426658
2.2935965e-06
-0.00010088485
3.2348852e-07
-0.00010009164
3.8858281e-08
-9.9941841e-05
3.213046e-08
-9.9918398e-05
-8.4321332e-09
-9.9918902e-05
-1.232443e-07
-9.9930501e-05
-2.5824565e-07
-9.9943559e-05
-5.8571511e-08
-9.9925776e-05
-9.9896788e-05
13.102082
-0.020864019
12.740676
-0.021803987
12.365305
-0.022811715
11.976425
-0.023889313
11.574505
-0.025038094
11.159995
-0.026258219
10.733281
-0.027548217
10.294643
-0.028904356
9.8442176
-0.030319834
9.3819642
-0.031783762
8.9076571
-0.033279919
8.4209038
-0.034785289
7.9212075
-0.036268439
7.4080891
-0.037687871
6.8812813
-0.038990586
6.341004
-0.040111267
5.7883165
-0.040972633
5.2255208
-0.041487673
4.6565621
-0.041564516
4.0873339
-0.041114486
3.5257714
-0.040063373
2.9816098
-0.03836501
2.4657284
-0.036014986
1.9890926
-0.033061194
1.5614425
-0.029607494
1.1899939
-0.025807669
0.87847362
-0.021849262
0.62673883
-0.01793007
0.43106563
-0.014232705
0.28499058
-0.010903312
0.18044503
-0.0080389228
0.10889019
-0.0056847326
0.062230877
-0.0038394935
0.033407144
-0.0024655506
0.016673729
-0.0015001828
0.0076418234
-0.0008663455
0.0031699253
-0.00048243756
0.0011708768
-0.00027125531
0.00037831965
-0.00016760303
0.00010491666
-0.00012306638
2.4486645e-05
-0.00010664099
4.7065258e-06
-0.00010154339
7.3772596e-07
-0.0001002374
9.7787761e-08
-9.9966085e-05
3.0977013e-08
-9.9920881e-05
-3.2525361e-08
-9.9919792e-05
-1.4790205e-07
-9.9929923e-05
-2.2771955e-07
-9.9936971e-05
-1.3338175e-08
-9.9918012e-05
-9.9900467e-05
12.959364
-0.018698427
12.60159
-0.019540073
12.230107
-0.020442367
11.845408
-0.021407245
11.448011
-0.022435974
11.038424
-0.023528841
10.617104
-0.024684752
10.184415
-0.025900699
9.7405876
-0.027171073
9.2856879
-0.02848679
8.8196005
-0.029834228
8.3420394
-0.031193963
7.8525974
-0.03253934
7.3508489
-0.033835011
6.836519
-0.035035598
6.3097291
-0.036084826
5.7713172
-0.036915597
5.2232152
-0.037451588
4.6688362
-0.037611062
4.1133941
-0.037313433
3.5640486
-0.036488733
3.0297562
-0.035089377
2.5207398
-0.033102553
2.0475635
-0.030560473
1.6199216
-0.027545203
1.2453722
-0.024185259
0.92831601
-0.020643084
0.66948307
-0.017095212
0.46605478
-0.013709544
0.31235481
-0.010625157
0.20088952
-0.0079391303
0.12345721
-0.0057022339
0.072090724
-0.0039224518
0.039704785
-0.0025734316
0.020432505
-0.0016046408
0.0097113901
-0.00095105172
0.0042048136
-0.00054165936
0.0016326181
-0.00030706772
0.00055867171
-0.00018619676
0.00016538155
-0.00013125259
4.1545006e-05
-0.00010965174
8.6793032e-06
-0.00010245313
1.4879843e-06
-0.00010045872
2.1141947e-07
-0.00010000798
3.3466772e-08
-9.9926807e-05
-5.3570009e-08
-9.9920773e-05
-1.6121109e-07
-9.9928471e-05
-1.9517556e-07
-9.9931003e-05
1.4039228e-08
-9.9913039e-05
-9.9903476e-05
12.831575
-0.016922915
12.477056
-0.017683967
12.109051
-0.018499842
11.728083
-0.019372334
11.334711
-0.020302658
10.92949
-0.021291187
10.512937
-0.022337107
10.085486
-0.023437954
9.6474493
-0.024589023
9.1989815
-0.025782616
8.7400628
-0.027007115
8.2705008
-0.028245876
7.7899694
-0.029475977
7.2980961
-0.030666899
6.7946107
-0.031779292
6.279565
-0.032764103
5.7536265
-0.033562452
5.2184305
-0.034106772
4.6769537
-0.034323821
4.1338409
-0.034140083
3.5955869
-0.033489792
3.0704615
-0.032325183
2.5680835
-0.030627682
2.0986119
-0.028417732
1.671631
-0.025760335
1.2949275
-0.02276363
0.97343614
-0.01956924
0.70862387
-0.016335528
0.49846912
-0.013217274
0.33801511
-0.010346645
0.22031539
-0.0078197785
0.13750748
-0.0056912506
0.081771717
-0.0039760142
0.046024755
-0.0026564519
0.024308413
-0.0016915329
0.011918338
-0.0010257515
0.0053544184
-0.00059684782
0.0021710637
-0.00034241345
0.00078116928
-0.00020571831
0.00024489824
-0.00014044263
6.5634088e-05
-0.00011328509
1.4746232e-05
-0.00010363971
2.7344218e-06
-0.00010077293
4.1545827e-07
-0.00010007385
4.7254453e-08
-9.9937623e-05
-6.9560002e-08
-9.9922123e-05
-1.6599153e-07
-9.9926697e-05
-1.6434045e-07
-9.9926052e-05
2.8961805e-08
-9.9910278e-05
-9.9906638e-05
12.716023
-0.015437789
12.36445
-0.016131437
11.999586
-0.016875034
11.621981
-0.017670247
11.232227
-0.018518237
10.830922
-0.019419435
10.418631
-0.020373235
9.9958486
-0.0213776
9.562956
-0.022428539
9.1201861
-0.023519452
8.6676015
-0.02464032
8.2050919
-0.025776721
7.7324046
-0.026908724
7.2492185
-0.028009693
6.7552753
-0.029045148
6.2505781
-0.029971902
5.7356608
-0.030737807
5.2119183
-0.031282557
4.681965
-0.031540088
4.1499636
-0.031443067
3.6218345
-0.03092974
3.1052393
-0.029952928
2.6092417
-0.028490134
2.1436014
-0.026552873
1.7177501
-0.024192623
1.3396172
-0.021500867
1.0145609
-0.018601745
0.74467316
-0.0156379
0.52863704
-0.012752323
0.36215491
-0.010070486
0.23880015
-0.0076869164
0.15104821
-0.0056587337
0.091241312
-0.0040062514
0.052319467
-0.0027187827
0.028256623
-0.0017629019
0.014230467
-0.0010907927
0.0066012616
-0.00064743691
0.0027800014
-0.00037654599
0.0010455045
-0.00022565022
0.00034487011
-0.0001504116
9.791091e-05
-0.00011749408
2.3466892e-05
-0.00010511528
4.6675955e-06
-0.00010119488
7.5788832e-07
-0.00010017035
8.2673449e-08
-9.9955142e-05
-7.9062407e-08
-9.9924313e-05
-1.6477235e-07
-9.9924981e-05
-1.3726323e-07
-9.9922129e-05
3.4640745e-08
-9.9908835e-05
-9.9908718e-05
12.610704
-0.014180379
12.261819
-0.014816968
11.899816
-0.015499382
11.525269
-0.016229176
11.138798
-0.017007461
10.741035
-0.017834703
10.33259
-0.018710459
9.9140083
-0.019633025
9.4857313
-0.020598976
9.0480594
-0.021602593
8.6011276
-0.022635137
8.1448992
-0.023683982
7.6791878
-0.02473162
7.2037215
-0.025754575
6.7182589
-0.026722353
6.2227692
-0.027596598
5.717681
-0.028330752
5.2041915
-0.028870606
4.6846111
-0.029156223
4.1626905
-0.029125702
3.6438497
-0.028721071
3.1352084
-0.02789621
2.6453212
-0.026626013
2.1835602
-0.024915183
1.7591761
-0.022804382
1.3801762
-0.020371354
1.0522537
-0.017725431
0.77803253
-0.014995564
0.55682091
-0.012314107
0.38492575
-0.0098001073
0.2564135
-0.0075460359
0.16409353
-0.0056106311
0.10048059
-0.0040183761
0.058555218
-0.0027641876
0.032242359
-0.0018208517
0.016620504
-0.0011468601
0.0079287493
-0.000693223
0.0034521989
-0.00040894634
0.0013501849
-0.00024555023
0.00046604555
-0.00016092624
0.0001393347
-0.00012220726
3.5392647e-05
-0.00010687838
7.5007116e-06
-0.00010173569
1.298864e-06
-0.00010030396
1.5312e-07
-9.9981457e-05
-8.0449277e-08
-9.9927924e-05
-1.5938734e-07
-9.9923561e-05
-1.1444351e-07
-9.9919101e-05
3.4823735e-08
-9.9908166e-05
-9.9910033e-05
12.514049
-0.013102081
12.167633
-0.013689745
11.808254
-0.014319698
11.436507
-0.014993395
11.053036
-0.015711898
10.658503
-0.016475697
10.253556
-0.017284474
9.8387862
-0.018136792
9.4146862
-0.019029686
8.9816161
-0.019958155
8.5397754
-0.02091451
8.0891925
-0.021887599
7.6297419
-0.022861911
7.1611982
-0.023816581
6.6833397
-0.024724424
6.1961131
-0.02555111
5.6998628
-0.026254777
5.1956221
-0.026786385
4.6854436
-0.027091269
4.1727226
-0.027112314
3.6624402
-0.026795063
3.1612317
-0.026094736
2.6771838
-0.024984545
2.219296
-0.023463955
1.7966203
-0.021564901
1.4171928
-0.019353694
1.0869708
-0.016927025
0.80903212
-0.014401853
0.58324096
-0.011900914
0.40645947
-0.0095371362
0.27322112
-0.0074006466
0.1766634
-0.0055511152
0.10948104
-0.0040162897
0.064709132
-0.0027956857
0.036239257
-0.0018672535
0.019065966
-0.0011947437
0.0093218331
-0.00073422968
0.0041800819
-0.00043928118
0.0016928715
-0.00026506131
0.00060857722
-0.00017176382
0.0001906305
-0.00012733817
5.103655e-05
-0.0001089155
1.1459869e-05
-0.00010240219
2.1095453e-06
-0.00010048056
2.7544985e-07
-0.00010001888
-7.1387084e-08
-9.9933647e-05
-1.5096511e-07
-9.9922643e-05
-9.5673669e-08
-9.9916835e-05
3.1911607e-08
-9.9907955e-05
-9.9910779e-05
12.424823
-0.012168381
12.080687
-0.012713686
11.723731
-0.013298219
11.354563
-0.013923347
10.97385
-0.014590086
10.582283
-0.015298939
10.180541
-0.016049686
9.7692533
-0.016841107
9.3489608
-0.017670615
8.9200756
-0.018533797
8.4828545
-0.019423835
8.0373849
-0.020330803
7.5835966
-0.02124085
7.1213083
-0.022135297
6.6503202
-0.022989732
6.170564
-0.023773224
5.6823167
-0.024447894
5.1864745
-0.024969125
4.6848696
-0.025286821
4.1805882
-0.025348104
3.6782239
-0.025101766
3.1839769
-0.024504517
2.7055032
-0.02352855
2.2514468
-0.022169296
1.8306507
-0.020451584
1.451142
-0.018432143
1.1190848
-0.016196806
0.8379448
-0.013851971
0.60808229
-0.011511662
0.4268699
-0.009283013
0.289283
-0.0072536334
0.18877989
-0.0054836099
0.11824048
-0.0040032529
0.070765821
-0.0028158986
0.040227369
-0.0019038543
0.0215485
-0.0012353182
0.010767214
-0.00077065826
0.0049561816
-0.00046737819
0.0020706816
-0.00028391607
0.00077211617
-0.00018272626
0.00025227921
-0.00013279449
7.0849874e-05
-0.00011120375
1.6773715e-05
-0.00010319676
3.2700897e-06
-0.00010070512
4.7021527e-07
-0.00010006981
-4.8529161e-08
-9.9942257e-05
-1.3999694e-07
-9.9922407e-05
-8.0431395e-08
-9.9915187e-05
2.7505025e-08
-9.990795e-05
-9.9911001e-05
12.342028
-0.011352528
12.00001
-0.011860825
11.6453
-0.012405676
11.278523
-0.01298837
10.900362
-0.013609878
10.511532
-0.01427071
10.112742
-0.014970725
9.7046566
-0.015708879
9.287857
-0.016482901
8.8628025
-0.017288869
8.4298013
-0.018120695
7.9889944
-0.018969481
7.5403623
-0.019822777
7.0837652
-0.020663752
6.6190259
-0.021470343
6.1460677
-0.022214516
5.6651131
-0.022861799
5.1769426
-0.023371396
4.6831982
-0.023697196
4.1866956
-0.023790084
3.6916846
-0.023601845
3.2039722
-0.023090744
2.730818
-0.022228435
2.2805276
-0.021007224
1.8617298
-0.019446116
1.4824146
-0.017593749
1.1489052
-0.015526569
0.86500048
-0.013341642
0.63150353
-0.011145083
0.44625708
-0.0090385605
0.30465441
-0.0071070733
0.20046639
-0.0054107364
0.12676131
-0.0039818723
0.076715602
-0.0028270207
0.044191915
-0.0019322131
0.024053384
-0.0012694623
0.012253423
-0.00080281854
0.0057734529
-0.00049318858
0.0024804518
-0.00030192956
0.00095592418
-0.00019364736
0.00032452937
-0.00013848547
9.5206917e-05
-0.00011371389
2.3663811e-05
-0.00010411778
4.8671066e-06
-0.00010098147
7.6167841e-07
-0.00010013661
-7.2952886e-09
-9.9954603e-05
-1.2636393e-07
-9.9923048e-05
-6.8007948e-08
-9.9914059e-05
2.2743966e-08
-9.9908029e-05
-9.9910913e-05
12.264852
-0.010634157
11.924811
-0.011109871
11.572194
-0.011619786
11.207641
-0.012165119
10.831852
-0.012746801
10.445562
-0.013365344
10.049506
-0.014020668
9.6443808
-0.014711879
9.2308032
-0.015436965
8.8092753
-0.016192424
8.3801516
-0.016972782
7.9436216
-0.017770016
7.4997127
-0.018572867
7.0483243
-0.019366079
6.5893021
-0.020129603
6.1225658
-0.020837889
5.6482935
-0.021459413
5.1671675
-0.021956695
4.6806647
-0.022287127
4.1913627
-0.02240495
3.7032036
-0.022264695
3.2216388
-0.0218262
2.7535618
-0.021060921
2.306957
-0.01995874
1.8902376
-0.01853386
1.5113346
-0.016828047
1.1766921
-0.014909586
0.8903943
-0.012867258
0.65364133
-0.010799983
0.46470907
-0.0088042875
0.31938591
-0.0069625285
0.21174639
-0.0053345541
0.13504889
-0.0039542591
0.082552937
-0.0028308927
0.048122154
-0.0019537053
0.026568962
-0.0012980207
0.013770749
-0.00083108098
0.0066254571
-0.00051675357
0.0029189429
-0.00031898735
0.0011589852
-0.0002043949
0.00040742372
-0.00014432716
0.00012439801
-0.00011641327
3.2336597e-05
-0.00010516025
6.9908758e-06
-0.00010131223
1.1775811e-06
-0.00010022154
5.8253547e-08
-9.9971603e-05
-1.0939024e-07
-9.9924797e-05
-5.765655e-08
-9.9913397e-05
1.8243926e-08
-9.9908131e-05
-9.9910625e-05
12.192623
-0.0099971943
11.854433
-0.010444021
11.503775
-0.010922963
11.141301
-0.011435172
10.767726
-0.011981542
10.383804
-0.012562581
9.9902923
-0.013178263
9.5879158
-0.013827815
9.177325
-0.01450945
8.75906
-0.015220016
8.3335174
-0.01595457
7.9009311
-0.016705834
7.4613718
-0.017463575
7.0147757
-0.018213891
6.5610118
-0.018938471
6.0999991
-0.019613919
5.6318804
-0.020211273
5.1572535
-0.020695957
4.6774512
-0.021028455
4.19484
-0.021166012
3.7130863
-0.021065687
3.2373176
-0.020688864
2.7740889
-0.020007048
2.3310801
-0.019008245
1.91649
-0.017702675
1.538174
-0.016126223
1.2026654
-0.01434005
0.9142935
-0.012425548
0.67461443
-0.010475083
0.48230387
-0.008580354
0.33352372
-0.0068210795
0.22264296
-0.0052566187
0.14311052
-0.0039220852
0.088275327
-0.0028290318
0.052010488
-0.0019695172
0.029086135
-0.0013217729
0.015311095
-0.00085583818
0.007506449
-0.00053817467
0.0033829874
-0.00033503149
0.0013801056
-0.00021486909
0.00050083333
-0.00015024556
0.00015862939
-0.00011926834
4.2977448e-05
-0.00010631662
9.7326095e-06
-0.00010169885
1.7487177e-06
-0.00010032666
1.5548096e-07
-9.9994219e-05
-8.7861899e-08
-9.9927926e-05
-4.8617588e-08
-9.9913185e-05
1.4352218e-08
-9.9908233e-05
-9.9910226e-05
12.12478
-0.0094289069
11.788329
-0.0098499639
11.439512
-0.010301274
11.078988
-0.010783934
10.707488
-0.011298799
10.325781
-0.011846375
9.934647
-0.012426677
9.5348345
-0.013039035
9.1270247
-0.013681851
8.7117922
-0.014352281
8.2895721
-0.015045831
7.8606393
-0.015755872
7.4251043
-0.016473056
6.9829382
-0.017184657
6.534033
-0.017873875
6.0783101
-0.018519192
5.6158831
-0.01909389
5.1472775
-0.019565954
4.6736995
-0.019898613
4.1973274
-0.020051813
3.7215791
-0.019984931
3.2512863
-0.019660859
2.7926906
-0.019051328
2.3531833
-0.018142891
1.9407516
-0.016942449
1.5631626
-0.015480833
1.2270131
-0.013812948
0.9368423
-0.012013578
0.69452645
-0.010169102
0.49911066
-0.008366689
0.34710996
-0.0066834529
0.23317828
-0.0051780953
0.15095462
-0.0038866601
0.093882427
-0.0028226696
0.055851735
-0.0019806516
0.031597891
-0.0013414154
0.01686779
-0.00087747698
0.0084113938
-0.00055758905
0.0038695875
-0.00035004662
0.0016179967
-0.00022499883
0.00060449396
-0.00015617801
0.00019802815
-0.0001222465
5.5746867e-05
-0.00010757759
1.3181971e-05
-0.00010214169
2.5083784e-06
-0.00010045377
2.9318882e-07
-0.00010002344
-6.0026566e-08
-9.9932752e-05
-4.0117246e-08
-9.9913455e-05
1.1242525e-08
-9.990835e-05
-9.9909799e-05
12.06085
-0.0089190249
11.72604
-0.0093169625
11.378956
-0.0097434841
11.020269
-0.010199633
10.650719
-0.010686232
10.271093
-0.011203781
9.882188
-0.011752328
9.4847761
-0.012331292
9.0795657
-0.012939239
8.6671629
-0.013573586
8.2480382
-0.014230235
7.822504
-0.014903118
7.3907082
-0.015583659
6.9526545
-0.016260158
6.5082577
-0.016917141
6.0574437
-0.017534736
5.6003023
-0.018088207
5.1372966
-0.018547807
4.6695211
-0.018879212
4.1989856
-0.019044808
3.7288829
-0.019006104
3.2637742
-0.018727444
2.8096093
-0.018180911
2.3735067
-0.017351941
1.9632458
-0.016244653
1.5864965
-0.014885511
1.2498967
-0.013323907
0.95816579
-0.011628691
0.71346831
-0.0098807634
0.51519105
-0.0081630427
0.36018293
-0.0065500936
0.24337335
-0.0050998324
0.15859015
-0.0038489966
0.099375386
-0.0028127967
0.059642528
-0.0019879458
0.034098885
-0.0013575578
0.018435385
-0.00089636193
0.009335936
-0.00057515131
0.0043759711
-0.00036404759
0.0018713388
-0.00023473691
0.00071804066
-0.00016207315
0.00024265055
-0.0001253174
7.0778662e-05
-0.00010893287
1.7424985e-05
-0.00010264018
3.4917199e-06
-0.00010060441
4.8158182e-07
-0.00010006028
-2.358778e-08
-9.9939636e-05
-3.1354035e-08
-9.9914272e-05
8.9807013e-09
-9.9908513e-05
-9.99094e-05
12.00043
-0.0084592019
11.667172
-0.0088362917
11.321727
-0.0092404605
10.964773
-0.0096727038
10.597064
-0.010133812
10.219398
-0.010624279
9.8325898
-0.01114418
9.4374331
-0.01169301
9.0346609
-0.012269476
8.6249081
-0.012871225
8.2086779
-0.013494502
7.7863172
-0.014133731
7.3580087
-0.014781013
6.9237872
-0.015425553
6.4835897
-0.016053042
6.0373479
-0.016645066
5.5851329
-0.017178643
5.1273534
-0.017626047
4.6650047
-0.01795515
4.1999451
-0.018130546
3.7351633
-0.018115707
3.2749714
-0.017876367
2.8250481
-0.01738505
2.392253
-0.016626345
1.9841629
-0.015602026
1.6083434
-0.014334771
1.2714556
-0.012869085
0.9783731
-0.011268477
0.73152012
-0.0096088196
0.53059996
-0.0079690463
0.37277743
-0.0064212379
0.25324793
-0.0050224327
0.16602624
-0.0038098667
0.10475636
-0.0028002004
0.063380849
-0.0019920898
0.036585095
-0.0013707231
0.020009462
-0.00091282523
0.010276343
-0.00059102049
0.0048996175
-0.00037706943
0.0021388274
-0.00024405535
0.00084103825
-0.00016789034
0.00029249186
-0.00012845373
8.8179718e-05
-0.00011037175
2.2542398e-05
-0.00010319299
4.7351161e-06
-0.00010077983
7.3219522e-07
-0.00010010573
2.4307506e-08
-9.9948984e-05
-2.146838e-08
-9.9915741e-05
7.5963825e-09
-9.9908774e-05
-9.9909078e-05
11.943176
-0.0080425784
11.611389
-0.0084007805
11.267496
-0.0087846986
10.912184
-0.0091952837
10.546216
-0.009633297
10.170402
-0.010099225
9.7855731
-0.010593164
9.3925416
-0.011114677
8.9920637
-0.011662593
8.5848008
-0.012234758
8.1712862
-0.012827721
7.7518989
-0.013436339
7.326854
-0.014053312
6.8962159
-0.014668641
6.4599431
-0.015269052
6.0179745
-0.015837426
5.570366
-0.016352346
5.1174792
-0.016787892
4.6602209
-0.017113918
4.200313
-0.017297019
3.7405575
-0.017302484
3.2850373
-0.017097369
2.8391782
-0.016654702
2.4095947
-0.015958432
2.0036659
-0.01500836
1.6288485
-0.013823859
1.2918114
-0.012445093
0.99755995
-0.010930742
0.74875277
-0.0093520616
0.54538657
-0.0077842456
0.38492507
-0.0062969649
0.26282038
-0.0049463091
0.17327193
-0.0037698517
0.11002812
-0.0027854999
0.067065672
-0.0019936452
0.039053525
-0.0013813543
0.02158645
-0.0009271627
0.011229433
-0.00060535136
0.0054382608
-0.0003891594
0.0024192048
-0.00025294086
0.00097300694
-0.00017359833
0.00034749672
-0.00013163148
0.000108031
-0.00011188363
2.8608493e-05
-0.00010379824
6.2755295e-06
-0.00010098101
1.057789e-06
-0.00010016074
8.7080258e-08
-9.9961236e-05
-9.509635e-09
-9.9917998e-05
7.1225773e-09
-9.9909197e-05
-9.9908876e-05
11.888789
-0.0076634704
11.558401
-0.0080044871
11.215983
-0.0083699795
10.86223
-0.0087608582
10.497912
-0.0091778567
10.123853
-0.0096214528
9.7408965
-0.010091763
9.3498735
-0.010588405
8.9515606
-0.011110317
8.5466442
-0.011655521
8.1356851
-0.012220833
7.7190922
-0.012801495
7.2971113
-0.013390737
6.8698344
-0.013979271
6.437241
-0.014554742
5.9992786
-0.015101189
5.5559905
-0.015598593
5.1076974
-0.016022665
4.655227
-0.016345044
4.2001776
-0.016534156
3.7451803
-0.016556963
3.2941065
-0.016381783
2.8521455
-0.015982185
2.4256793
-0.015341651
2.0218953
-0.014458309
1.6481375
-0.013348642
1.3110702
-0.012048941
1.0158106
-0.01061351
0.76522921
-0.0091093524
0.55959495
-0.0076081518
0.39665457
-0.0061772491
0.27210779
-0.0048717364
0.18033594