/*--------------------------------*- C++ -*----------------------------------*\
| =========                 |                                                 |
| \\      /  F ield         | OpenFOAM: The Open Source CFD Toolbox           |
|  \\    /   O peration     | Version:  4.0                                   |
|   \\  /    A nd           | Web:      www.OpenFOAM.org                      |
|    \\/     M anipulation  |                                                 |
\*---------------------------------------------------------------------------*/
FoamFile
{
    version     2.0;
    format      ascii;
    class       volScalarField;
    location    "859";
    object      T;
}
// * * * * * * * * * * * * * * * * * * * * * * * * * * * * * * * * * * * * * //

dimensions      [0 0 0 1 0 0 0];

internalField   nonuniform List<scalar> 
5000
(
303.91635
303.37929
302.81032
302.21197
301.58796
300.94328
300.28418
299.6182
298.95392
298.30074
297.6685
297.06692
296.50512
295.99102
295.53077
295.1284
294.78554
294.50135
294.27278
294.09485
293.96126
293.86488
293.79842
293.75492
293.72812
293.71279
293.70482
293.70117
293.69982
293.69952
293.69959
293.69973
293.69984
293.69989
293.69992
293.69992
293.69993
293.69993
293.69993
293.69993
293.69993
293.69993
293.69993
293.69993
293.69993
293.69993
293.69993
293.69993
293.69993
293.69993
306.48079
306.05061
305.591
305.10069
304.57864
304.02417
303.43714
302.81825
302.16928
301.4934
300.79548
300.08227
299.36249
298.64673
297.94703
297.27627
296.64726
296.07167
295.55899
295.11564
294.74431
294.44392
294.20986
294.03477
293.90949
293.82415
293.76911
293.73574
293.7169
293.70712
293.70252
293.70062
293.69996
293.69978
293.69976
293.69977
293.69977
293.69978
293.69978
293.69978
293.69978
293.69978
293.69978
293.69978
293.69978
293.69978
293.69978
293.69978
293.69978
293.69978
307.14526
306.74356
306.31481
305.85816
305.3729
304.85853
304.31481
303.74186
303.1403
302.51142
301.85737
301.18146
300.4884
299.78453
299.07802
298.37879
297.69825
297.04873
296.44255
295.89095
295.40292
294.98425
294.63692
294.35905
294.14529
293.98769
293.87677
293.80261
293.75579
293.72809
293.71287
293.7052
293.70171
293.7003
293.6998
293.69966
293.69963
293.69963
293.69963
293.69963
293.69963
293.69963
293.69963
293.69963
293.69963
293.69963
293.69963
293.69963
293.69963
293.69963
307.4846
307.09742
306.68421
306.24418
305.77671
305.28135
304.75793
304.20657
303.62782
303.02275
302.39306
301.74127
301.07088
300.3866
299.69448
299.00208
298.31846
297.65396
297.01977
296.42722
295.88678
295.40704
294.99375
294.64916
294.37187
294.15716
293.99769
293.88452
293.80815
293.75944
293.73028
293.71406
293.70575
293.7019
293.7003
293.69972
293.69954
293.6995
293.69949
293.69949
293.69949
293.69949
293.69949
293.69949
293.69949
293.69949
293.69949
293.69949
293.69949
293.69949
307.72346
307.34651
306.94422
306.51582
306.06068
305.57835
305.06861
304.53153
303.96756
303.3776
302.7631
302.12624
301.47003
300.79847
300.11673
299.43122
298.7497
298.08117
297.43564
296.82365
296.2556
295.74083
295.2867
294.89778
294.57532
294.31722
294.11834
293.97132
293.86744
293.79764
293.75332
293.72691
293.7123
293.70488
293.70146
293.70005
293.69955
293.69939
293.69935
293.69934
293.69934
293.69934
293.69934
293.69934
293.69934
293.69934
293.69934
293.69934
293.69934
293.69934
307.90838
307.53935
307.14552
306.72611
306.28049
305.8082
305.30897
304.78282
304.23009
303.65153
303.04841
302.42263
301.77685
301.11462
300.44053
299.76034
299.08101
298.41073
297.75871
297.13486
296.54926
296.01141
295.52938
295.10902
294.75325
294.46182
294.23139
294.05603
293.92802
293.83877
293.77962
293.74263
293.72096
293.70921
293.70336
293.70074
293.6997
293.69933
293.69923
293.6992
293.6992
293.69919
293.69919
293.69919
293.69919
293.69919
293.69919
293.69919
293.69919
293.6992
308.0592
307.69664
307.30971
306.89765
306.45981
305.99571
305.50508
304.98786
304.44432
303.8751
303.28131
302.66465
302.02747
301.37299
300.70536
300.02983
299.3528
298.68184
298.02558
297.39344
296.79521
296.2404
295.73746
295.29302
294.91116
294.59297
294.33651
294.13708
293.98792
293.88098
293.80783
293.76035
293.73132
293.71476
293.70603
293.70185
293.70004
293.69936
293.69913
293.69907
293.69905
293.69905
293.69905
293.69905
293.69905
293.69905
293.69905
293.69905
293.69905
293.69905
308.18543
307.8283
307.44715
307.04123
306.60991
306.15269
305.66926
305.15953
304.62373
304.06239
303.4765
302.86759
302.23779
301.59005
300.92817
300.25698
299.58243
298.91158
298.25259
297.61448
297.00675
296.43885
295.91948
295.45579
295.0527
294.71235
294.4339
294.21373
294.04592
293.92301
293.83684
293.77929
293.74291
293.72132
293.70941
293.70337
293.7006
293.69947
293.69907
293.69894
293.69891
293.6989
293.6989
293.6989
293.6989
293.6989
293.6989
293.6989
293.6989
293.6989
308.29382
307.94134
307.56516
307.16452
306.7388
306.28749
305.81026
305.307
304.77786
304.22334
303.64432
303.04217
302.41888
301.77713
301.12046
300.45336
299.78139
299.1112
298.45054
297.80804
297.19295
296.61463
296.0819
295.60231
295.18141
294.82219
294.52474
294.28635
294.10187
293.96442
293.86614
293.79899
293.75539
293.72869
293.7134
293.70531
293.7014
293.6997
293.69905
293.69883
293.69877
293.69876
293.69876
293.69876
293.69876
293.69876
293.69876
293.69876
293.69876
293.69876
308.38841
308.04
307.66815
307.27214
306.85131
306.40516
305.93335
305.43575
304.91247
304.36393
303.79096
303.1948
302.5773
301.94095
301.28906
300.62582
299.95648
299.28732
298.62572
297.97999
297.35913
296.77236
296.22857
295.7356
295.29951
294.92395
294.60982
294.35522
294.15571
294.00494
293.89538
293.81912
293.76851
293.73671
293.71793
293.70762
293.70242
293.70005
293.69909
293.69875
293.69864
293.69862
293.69861
293.69861
293.69861
293.69861
293.69861
293.69861
293.69861
293.69861
308.47223
308.12742
307.75942
307.3675
306.951
306.50944
306.04244
305.54986
305.03179
304.4886
303.92102
303.33025
302.71797
302.08653
301.43904
300.77945
300.11272
299.44483
298.78282
298.13472
297.50925
296.91553
296.36244
295.85804
295.40877
295.01887
294.68993
294.42075
294.20755
294.04449
293.92438
293.83946
293.78209
293.74524
293.72292
293.71029
293.70368
293.70054
293.69919
293.69869
293.69852
293.69848
293.69846
293.69846
293.69846
293.69846
293.69846
293.69846
293.69846
293.69846
308.54734
308.20575
307.8412
307.45294
307.04034
306.60288
306.14021
305.65214
305.13875
304.60036
304.03767
303.45175
302.84423
302.2173
301.57388
300.91775
300.25358
299.58711
298.92508
298.27523
297.64607
297.04655
296.48555
295.97126
295.51045
295.10785
294.76563
294.48324
294.25748
294.08302
293.95302
293.85988
293.79596
293.75416
293.72829
293.71326
293.70515
293.70115
293.69936
293.69865
293.69841
293.69834
293.69832
293.69832
293.69832
293.69832
293.69832
293.69832
293.69832
293.69832
308.61529
308.27663
307.9152
307.53026
307.12118
306.68744
306.22868
305.7447
305.23556
304.70154
304.14328
303.56181
302.95865
302.33587
301.69625
301.04337
300.38171
299.71675
299.05497
298.40386
297.77171
297.16731
296.59951
296.07659
295.60558
295.19162
294.83741
294.54294
294.30562
294.12055
293.98123
293.88026
293.81004
293.7634
293.73398
293.71651
293.70683
293.70189
293.6996
293.69866
293.69831
293.69821
293.69818
293.69817
293.69817
293.69817
293.69817
293.69817
293.69817
293.69817
308.67726
308.34126
307.98268
307.60077
307.1949
306.76456
306.30937
305.82913
305.32387
304.79384
304.23966
303.66227
303.06313
302.4442
301.80813
301.15834
300.49912
299.83571
299.17439
298.52239
297.88779
297.27926
296.70555
296.17504
295.69495
295.27076
294.90564
294.6001
294.35206
294.15707
294.00896
293.90052
293.82422
293.77285
293.73993
293.72
293.70869
293.70276
293.69992
293.6987
293.69823
293.69808
293.69804
293.69803
293.69802
293.69802
293.69802
293.69802
293.69802
293.69802
308.73416
308.40061
308.04464
307.66551
307.2626
306.83537
306.38347
305.90667
305.40497
304.87863
304.3282
303.7546
303.15918
302.54383
301.9111
301.26423
300.60736
299.94554
299.28482
298.63223
297.99564
297.38356
296.8047
296.26744
295.7792
295.34575
294.97066
294.65492
294.3969
294.1926
294.03617
293.9206
293.83846
293.78248
293.7461
293.72369
293.71072
293.70375
293.70031
293.69877
293.69817
293.69796
293.6979
293.69788
293.69788
293.69788
293.69788
293.69788
293.69788
293.69788
308.78671
308.45543
308.10187
307.72531
307.32512
306.90078
306.45191
305.97829
305.4799
304.95697
304.41002
303.83993
303.24798
302.63599
302.00639
301.36231
300.70771
300.04748
299.38748
298.73451
298.09629
297.48116
296.89776
296.35449
295.85889
295.41701
295.03275
294.70756
294.44023
294.22717
294.06285
293.94047
293.85268
293.79223
293.75243
293.72756
293.7129
293.70484
293.70076
293.69889
293.69812
293.69784
293.69776
293.69774
293.69773
293.69773
293.69773
293.69773
293.69773
293.69773
308.83549
308.50631
308.15499
307.78082
307.38316
306.9615
306.51545
306.04478
305.54947
305.02972
304.48601
303.91919
303.33049
302.72165
302.09501
301.45358
300.80118
300.14254
299.48332
298.83017
298.1906
297.57284
296.98542
296.43675
295.93448
295.48488
295.09217
294.75819
294.48214
294.26082
294.089
293.9601
293.86686
293.80204
293.7589
293.73157
293.71521
293.70604
293.70129
293.69905
293.6981
293.69774
293.69762
293.69759
293.69759
293.69759
293.69759
293.69759
293.69759
293.69759
308.88098
308.55376
308.20453
307.83259
307.43729
307.01813
306.57471
306.1068
305.61436
305.09757
304.5569
303.99315
303.4075
302.80163
302.17779
301.53888
300.8886
300.23153
299.57316
298.91997
298.27931
297.65925
297.06825
296.51471
296.00637
295.54967
295.14914
294.80695
294.52271
294.29358
294.11462
293.97946
293.88097
293.8119
293.76548
293.73572
293.71764
293.70734
293.70189
293.69924
293.69809
293.69764
293.69749
293.69745
293.69744
293.69744
293.69744
293.69744
293.69744
293.69744
308.92357
308.59818
308.25092
307.88106
307.48797
307.07115
306.63019
306.16487
305.67512
305.16112
304.6233
304.06243
303.47966
302.87659
302.2554
301.6189
300.97067
300.31515
299.65767
299.00456
298.36301
297.74094
297.14675
296.5888
296.07489
295.61164
295.20383
294.85397
294.56202
294.32548
294.13971
293.99855
293.89497
293.82178
293.77213
293.73996
293.72018
293.70872
293.70254
293.69948
293.69811
293.69756
293.69737
293.69731
293.6973
293.69729
293.69729
293.69729
293.69729
293.69729
308.96359
308.63992
308.2945
307.9266
307.53559
307.12097
306.68233
306.21943
305.73222
305.22084
304.68571
304.12756
303.54751
302.9471
302.32843
301.69424
301.04798
300.39398
299.73743
299.08449
298.44221
297.8184
297.22134
296.65937
296.14035
295.67103
295.25644
294.89938
294.60014
294.35656
294.16428
294.01734
293.90886
293.83165
293.77884
293.7443
293.7228
293.71018
293.70326
293.69976
293.69815
293.69748
293.69724
293.69717
293.69715
293.69715
293.69715
293.69715
293.69715
293.69715
309.00131
308.67927
308.33558
307.96953
307.58048
307.16794
306.73148
306.27088
305.78605
305.27714
304.74456
304.18899
303.61151
303.01362
302.39736
301.76537
301.12103
300.46851
299.81291
299.16022
298.51737
297.89202
297.29237
296.72673
296.203
295.72805
295.30712
294.94328
294.63715
294.38686
294.18835
294.03586
293.92261
293.84149
293.7856
293.74871
293.72551
293.71172
293.70403
293.70007
293.69821
293.69742
293.69713
293.69703
293.69701
293.697
293.697
293.697
293.697
293.697
309.03697
308.71647
308.37442
308.01011
307.62292
307.21234
306.77795
306.31951
305.83695
305.33039
304.8002
304.24708
303.67205
303.07656
302.4626
301.83273
301.19023
300.53918
299.88453
299.23217
298.58885
297.96215
297.36016
296.79116
296.26307
295.78288
295.356
294.98577
294.6731
294.41642
294.21193
294.05409
293.93624
293.8513
293.79238
293.75317
293.72828
293.71331
293.70485
293.70042
293.69829
293.69737
293.69701
293.6969
293.69686
293.69686
293.69685
293.69685
293.69685
293.69685
309.07077
308.75173
308.41123
308.04858
307.66315
307.25442
306.822
306.36562
305.8852
305.38086
304.85297
304.30217
303.72946
303.13627
302.5245
301.89667
301.25596
300.60634
299.95266
299.30066
298.65699
298.0291
297.425
296.8529
296.32077
295.83567
295.40321
295.02693
294.70805
294.44527
294.23504
294.07203
293.94971
293.86107
293.79917
293.75769
293.73112
293.71497
293.70572
293.7008
293.69839
293.69732
293.69691
293.69676
293.69672
293.69671
293.69671
293.69671
293.69671
293.69671
309.10289
308.78523
308.44622
308.08514
307.70138
307.29442
306.86386
306.40943
305.93106
305.42883
304.90312
304.35453
303.78404
303.19304
302.58338
301.9575
301.31852
300.67031
300.01759
299.36601
298.72208
298.09314
297.48711
296.91217
296.37628
295.88659
295.44886
295.06686
294.74206
294.47344
294.2577
294.0897
293.96305
293.87078
293.80598
293.76224
293.73401
293.71667
293.70664
293.70121
293.69851
293.69729
293.6968
293.69663
293.69658
293.69656
293.69656
293.69656
293.69656
293.69656
309.13348
308.81714
308.47953
308.11995
307.73778
307.3325
306.90372
306.45116
305.97473
305.47452
304.95088
304.40441
303.83605
303.24714
302.6395
302.01551
301.3782
300.73136
300.07962
299.42848
298.78437
298.15451
297.54672
296.96915
296.42975
295.93575
295.49305
295.10563
294.77519
294.50097
294.27993
294.1071
293.97623
293.88043
293.81278
293.76683
293.73694
293.71843
293.70759
293.70166
293.69866
293.69728
293.69671
293.6965
293.69644
293.69642
293.69642
293.69642
293.69642
293.69642
309.16266
308.84758
308.51131
308.15316
307.77251
307.36885
306.94175
306.49097
306.0164
305.51813
304.99647
304.45202
303.88569
303.2988
302.6931
302.07093
301.43524
300.78974
300.13896
299.48831
298.84409
298.2134
297.60402
297.02401
296.48133
295.98329
295.53588
295.1433
294.80747
294.52789
294.30173
294.12423
293.98927
293.89002
293.81957
293.77144
293.73991
293.72022
293.70859
293.70214
293.69882
293.69727
293.69662
293.69637
293.6963
293.69627
293.69627
293.69627
293.69627
293.69627
309.19056
308.87668
308.5417
308.18492
307.80572
307.40359
306.97812
306.52904
306.05624
305.55982
305.04006
304.49755
303.93317
303.34821
302.74439
302.12397
301.48985
300.84567
300.19585
299.5457
298.90142
298.27002
297.65917
297.07689
296.53115
296.02929
295.57743
295.17994
294.83896
294.55422
294.32312
294.1411
294.00216
293.89954
293.82635
293.77606
293.74292
293.72206
293.70962
293.70264
293.69901
293.69727
293.69653
293.69625
293.69616
293.69613
293.69612
293.69612
293.69612
293.69612
309.21728
308.90455
308.5708
308.21533
307.83752
307.43686
307.01294
306.5655
306.0944
305.59974
305.08181
304.54116
303.97866
303.39555
302.79353
302.17481
301.54223
300.89933
300.25046
299.60083
298.95655
298.32452
297.71232
297.12795
296.57933
296.07386
295.61778
295.21561
294.86969
294.57999
294.34413
294.15772
294.0149
293.90899
293.83311
293.78071
293.74596
293.72393
293.71068
293.70317
293.69921
293.69729
293.69645
293.69613
293.69602
293.69599
293.69598
293.69598
293.69598
293.69598
309.2429
308.93129
308.59871
308.2445
307.86802
307.46878
307.04635
306.60046
306.13101
305.63805
305.12186
304.583
304.0223
303.44099
302.84071
302.22363
301.59253
300.95088
300.30296
299.65388
299.00963
298.37705
297.76362
297.17729
296.62597
296.11709
295.65699
295.25035
294.8997
294.60523
294.36476
294.1741
294.0275
293.91837
293.83984
293.78536
293.74902
293.72583
293.71177
293.70372
293.69943
293.69732
293.69638
293.69601
293.69588
293.69584
293.69583
293.69583
293.69583
293.69583
309.26752
308.95696
308.62553
308.27252
307.89733
307.49943
307.07844
306.63406
306.16617
305.67484
305.16034
304.6232
304.06424
303.48465
302.88605
302.27057
301.64091
301.00049
300.3535
299.70498
299.06081
298.42774
297.81319
297.22502
296.67116
296.15905
295.69514
295.28421
294.92903
294.62995
294.38503
294.19023
294.03996
293.92768
293.84656
293.79002
293.75211
293.72777
293.71289
293.7043
293.69967
293.69736
293.69632
293.69589
293.69574
293.6957
293.69569
293.69568
293.69568
293.69568
309.2912
308.98166
308.65132
308.29947
307.92551
307.52893
307.10931
306.66637
306.2
305.71024
305.19737
304.66188
304.1046
303.52668
302.9297
302.31575
301.6875
301.04829
300.40223
299.75426
299.11021
298.47672
297.86113
297.27125
296.71499
296.19983
295.73226
295.31725
294.9577
294.65419
294.40495
294.20613
294.05227
293.93691
293.85325
293.79467
293.75521
293.72972
293.71403
293.7049
293.69992
293.69741
293.69626
293.69578
293.69561
293.69556
293.69554
293.69554
293.69554
293.69554
309.31401
309.00545
308.67616
308.32543
307.95266
307.55733
307.13904
306.6975
306.23259
305.74434
305.23303
304.69915
304.14348
303.56717
302.97177
302.35932
301.73243
301.09439
300.44924
299.80186
299.15795
298.52409
297.90754
297.31607
296.75754
296.23947
295.76844
295.3495
294.98575
294.67795
294.42454
294.22181
294.06445
293.94607
293.8599
293.79933
293.75833
293.7317
293.7152
293.70552
293.70019
293.69747
293.6962
293.69567
293.69548
293.69541
293.6954
293.69539
293.69539
293.69539
309.336
309.0284
308.70011
308.35046
307.97884
307.58472
307.16771
306.72752
306.26401
305.77723
305.26743
304.73509
304.18098
303.60623
303.01236
302.40136
301.7758
301.13891
300.49467
299.84786
299.20413
298.56995
297.95253
297.35956
296.79889
296.27805
295.8037
295.381
295.01321
294.70127
294.4438
294.23727
294.07649
293.95515
293.86653
293.80399
293.76146
293.7337
293.7164
293.70616
293.70048
293.69754
293.69616
293.69557
293.69535
293.69527
293.69525
293.69525
293.69525
293.69525
309.35723
309.05055
308.72324
308.37463
308.00411
307.61117
307.19539
306.7565
306.29435
305.80898
305.30064
304.76979
304.2172
303.64396
303.05156
302.44197
301.81771
301.18196
300.53861
299.89238
299.24885
298.6144
297.99617
297.40179
296.8391
296.31563
295.83809
295.41179
295.0401
294.72415
294.46274
294.25252
294.08839
293.96417
293.87312
293.80864
293.76461
293.73573
293.71761
293.70683
293.70078
293.69763
293.69612
293.69547
293.69522
293.69513
293.69511
293.6951
293.6951
293.6951
309.37775
309.07195
308.74559
308.39799
308.02854
307.63673
307.22214
306.78451
306.32367
305.83967
305.33274
304.80334
304.25222
303.68044
303.08948
302.48126
301.85826
301.22361
300.58114
299.93551
299.29219
298.65751
298.03853
297.44283
296.87822
296.35224
295.87167
295.44189
295.06644
294.74662
294.48139
294.26756
294.10017
293.9731
293.87968
293.81328
293.76776
293.73776
293.71884
293.7075
293.7011
293.69772
293.69609
293.69537
293.69509
293.69499
293.69496
293.69496
293.69495
293.69495
309.3976
309.09266
308.76721
308.42058
308.05217
307.66145
307.24803
306.8116
306.35204
305.86936
305.3638
304.8358
304.2861
303.71574
303.12617
302.51929
301.89752
301.26395
300.62236
299.97731
299.33423
298.69936
298.07969
297.48275
296.91632
296.38795
295.90446
295.47134
295.09226
294.76868
294.49974
294.28239
294.11181
293.98196
293.88621
293.81792
293.77093
293.73982
293.7201
293.7082
293.70143
293.69783
293.69606
293.69528
293.69496
293.69485
293.69482
293.69481
293.69481
293.69481
309.41682
309.11271
308.78815
308.44247
308.07505
307.6854
307.27309
306.83784
306.37951
305.89812
305.39388
304.86724
304.31891
303.74994
303.16172
302.55613
301.93558
301.30307
300.66233
300.01788
299.37505
298.74003
298.11972
297.52161
296.95345
296.42279
295.93651
295.50017
295.11759
294.79037
294.51781
294.29703
294.12334
293.99075
293.8927
293.82255
293.77409
293.74188
293.72136
293.70891
293.70177
293.69794
293.69604
293.69519
293.69484
293.69471
293.69468
293.69466
293.69466
293.69466
309.43545
309.13214
308.80844
308.46367
308.09723
307.7086
307.29738
306.86328
306.40614
305.92599
305.42304
304.89771
304.35073
303.78309
303.19619
302.59187
301.97249
301.34102
300.70113
300.05727
299.41471
298.77956
298.15866
297.55946
296.98965
296.45681
295.96784
295.52841
295.14243
294.81168
294.53561
294.31149
294.13473
293.99947
293.89916
293.82716
293.77727
293.74396
293.72265
293.70964
293.70213
293.69806
293.69603
293.6951
293.69472
293.69458
293.69453
293.69452
293.69452
293.69451
309.45352
309.151
308.82813
308.48424
308.11874
307.73112
307.32095
306.88795
306.43197
305.95303
305.45132
304.92728
304.38159
303.81526
303.22964
302.62656
302.00832
301.37787
300.73882
300.09555
299.45328
298.81803
298.19659
297.59635
297.02497
296.49004
295.99849
295.55607
295.16681
294.83263
294.55314
294.32575
294.14601
294.00812
293.90558
293.83177
293.78044
293.74606
293.72395
293.71038
293.7025
293.6982
293.69602
293.69502
293.6946
293.69444
293.69439
293.69437
293.69437
293.69437
309.47107
309.1693
308.84724
308.50421
308.13963
307.75297
307.34382
306.9119
306.45705
305.97928
305.47878
304.95599
304.41156
303.8465
303.26213
302.66025
302.04314
301.41369
300.77546
300.13278
299.4908
298.85548
298.23354
297.63232
297.05946
296.52252
296.02849
295.58318
295.19075
294.85324
294.57042
294.33984
294.15716
294.01669
293.91196
293.83636
293.78362
293.74816
293.72526
293.71114
293.70288
293.69834
293.69602
293.69494
293.69448
293.69431
293.69425
293.69423
293.69422
293.69422
309.48811
309.18708
308.8658
308.52362
308.15992
307.7742
307.36605
306.93517
306.48141
306.00478
305.50547
304.98388
304.44069
303.87685
303.29371
302.693
302.07699
301.44852
300.8111
300.16902
299.52734
298.89197
298.26957
297.66742
297.09314
296.55429
296.05786
295.60977
295.21426
294.87351
294.58745
294.35375
294.16821
294.0252
293.91831
293.84094
293.7868
293.75027
293.72659
293.71191
293.70328
293.6985
293.69603
293.69487
293.69436
293.69417
293.69411
293.69408
293.69408
293.69408
309.50468
309.20436
308.88385
308.54248
308.17965
307.79484
307.38766
306.95779
306.5051
306.02958
305.53141
305.011
304.46901
303.90638
303.32442
302.72486
302.10992
301.48241
300.8458
300.2043
299.56293
298.92754
298.30472
297.7017
297.12606
296.58536
296.08664
295.63585
295.23736
294.89347
294.60423
294.36749
294.17913
294.03363
293.92462
293.8455
293.78998
293.75239
293.72793
293.71269
293.70368
293.69866
293.69605
293.6948
293.69425
293.69404
293.69396
293.69394
293.69393
293.69393
309.5208
309.22118
308.90141
308.56083
308.19884
307.81493
307.40868
306.97981
306.52815
306.0537
305.55665
305.03739
304.49657
303.93511
303.35431
302.75587
302.14199
301.51542
300.8796
300.23869
299.59764
298.96224
298.33903
297.73518
297.15825
296.61578
296.11484
295.66145
295.26006
294.91311
294.62079
294.38106
294.18995
294.042
293.93089
293.85005
293.79316
293.75452
293.72928
293.71349
293.7041
293.69883
293.69607
293.69473
293.69414
293.69391
293.69382
293.6938
293.69379
293.69379
309.5365
309.23755
308.91851
308.5787
308.21753
307.83448
307.42915
307.00124
306.55059
306.07719
305.58123
305.06309
304.5234
303.96309
303.38342
302.78608
302.17322
301.54758
300.91254
300.27221
299.63149
298.9961
298.37253
297.76791
297.18974
296.64557
296.14249
295.68658
295.28238
294.93245
294.63712
294.39448
294.20066
294.0503
293.93713
293.85458
293.79634
293.75665
293.73064
293.7143
293.70453
293.69901
293.69609
293.69467
293.69403
293.69378
293.69368
293.69365
293.69364
293.69364
309.55179
309.2535
308.93517
308.59611
308.23573
307.85353
307.44909
307.02212
306.57245
306.10008
305.60518
305.08813
304.54955
303.99035
303.41179
302.81552
302.20367
301.57894
300.94467
300.30492
299.66453
299.02917
298.40527
297.79991
297.22056
296.67476
296.16961
295.71126
295.30433
294.9515
294.65323
294.40773
294.21126
294.05853
293.94333
293.8591
293.79951
293.7588
293.73201
293.71512
293.70497
293.6992
293.69613
293.69461
293.69393
293.69365
293.69354
293.69351
293.6935
293.6935
309.56669
309.26905
308.9514
308.61307
308.25347
307.87209
307.46852
307.04247
306.59376
306.12239
305.62852
305.11253
304.57503
304.01693
303.43945
302.84422
302.23337
301.60953
300.97602
300.33684
299.6968
299.06148
298.43728
297.83122
297.25074
296.70337
296.19623
295.73551
295.32592
294.97027
294.66912
294.42084
294.22176
294.0667
293.94949
293.86361
293.80269
293.76094
293.73339
293.71595
293.70542
293.6994
293.69617
293.69456
293.69383
293.69352
293.69341
293.69337
293.69335
293.69335
309.58122
309.28421
308.96723
308.62962
308.27078
307.8902
307.48748
307.06231
306.61454
306.14414
305.65129
305.13634
304.5999
304.04286
303.46643
302.87224
302.26235
301.63939
301.00663
300.36802
299.72832
299.09307
298.46859
297.86186
297.2803
296.73141
296.22235
295.75933
295.34717
294.98876
294.68481
294.43379
294.23216
294.07481
293.95563
293.8681
293.80586
293.7631
293.73479
293.71679
293.70588
293.6996
293.69621
293.69451
293.69373
293.69339
293.69327
293.69322
293.69321
293.6932
309.59541
309.29901
308.98268
308.64577
308.28766
307.90787
307.50598
307.08168
306.63482
306.16538
305.6735
305.15957
304.62416
304.06816
303.49277
302.89958
302.29064
301.66855
301.03653
300.39849
299.75914
299.12396
298.49922
297.89186
297.30927
296.75893
296.24799
295.78276
295.36809
295.00699
294.7003
294.4466
294.24246
294.08285
293.96172
293.87257
293.80903
293.76526
293.73619
293.71764
293.70635
293.69982
293.69627
293.69447
293.69363
293.69327
293.69313
293.69308
293.69306
293.69306
309.60925
309.31345
308.99777
308.66153
308.30415
307.92512
307.52404
307.10059
306.65462
306.18611
305.6952
305.18225
304.64786
304.09288
303.5185
302.92629
302.31829
301.69705
301.06575
300.42828
299.78927
299.15418
298.52921
297.92126
297.33767
296.78592
296.27318
295.80579
295.38868
295.02497
294.71559
294.45926
294.25266
294.09084
293.96778
293.87703
293.8122
293.76742
293.7376
293.71851
293.70683
293.70004
293.69632
293.69443
293.69353
293.69315
293.69299
293.69294
293.69292
293.69292
309.62278
309.32757
309.0125
308.67693
308.32026
307.94198
307.54168
307.11907
306.67397
306.20636
305.71639
305.20441
304.67101
304.11702
303.54363
302.95239
302.3453
301.7249
301.09432
300.45741
299.81876
299.18376
298.55858
297.95006
297.36552
296.81242
296.29794
295.82844
295.40896
295.04269
294.73069
294.47179
294.26277
294.09876
293.97381
293.88147
293.81536
293.76959
293.73901
293.71938
293.70732
293.70027
293.69639
293.69439
293.69344
293.69303
293.69286
293.6928
293.69278
293.69277
309.636
309.34136
309.0269
308.69198
308.336
307.95845
307.55892
307.13712
306.69287
306.22615
305.7371
305.22608
304.69364
304.14063
303.56821
302.97791
302.37172
301.75213
301.12227
300.48591
299.84762
299.21273
298.58736
297.9783
297.39285
296.83844
296.32226
295.85074
295.42894
295.06018
294.74561
294.48418
294.27278
294.10662
293.9798
293.88589
293.81852
293.77176
293.74044
293.72026
293.70781
293.70051
293.69646
293.69436
293.69335
293.69291
293.69272
293.69266
293.69263
293.69263
309.64892
309.35484
309.04098
308.70669
308.35139
307.97455
307.57578
307.15477
306.71136
306.2455
305.75736
305.24726
304.71576
304.16371
303.59224
303.00287
302.39756
301.77878
301.14962
300.51381
299.87588
299.2411
298.61556
298.006
297.41966
296.86399
296.34618
295.87267
295.44863
295.07743
294.76034
294.49644
294.2827
294.11442
293.98576
293.8903
293.82168
293.77394
293.74187
293.72115
293.70832
293.70076
293.69654
293.69434
293.69327
293.69279
293.69259
293.69252
293.69249
293.69248
309.66157
309.36803
309.05475
308.72109
308.36644
307.9903
307.59227
307.17204
306.72944
306.26443
305.77717
305.26798
304.73741
304.18629
303.61575
303.02729
302.42285
301.80487
301.17639
300.54114
299.90356
299.26891
298.64321
298.03317
297.44599
296.8891
296.3697
295.89427
295.46803
295.09445
294.77491
294.50857
294.29253
294.12217
293.99168
293.8947
293.82483
293.77612
293.74332
293.72205
293.70884
293.70101
293.69663
293.69432
293.69319
293.69267
293.69246
293.69238
293.69235
293.69234
309.67394
309.38094
309.06823
308.73517
308.38117
308.00572
307.60841
307.18894
306.74713
306.28296
305.79656
305.28825
304.7586
304.20839
303.63877
303.0512
302.44761
301.83041
301.20262
300.5679
299.93069
299.29618
298.67034
298.05983
297.47185
296.91378
296.39284
295.91554
295.48716
295.11125
294.7893
294.52058
294.30228
294.12986
293.99757
293.89908
293.82798
293.7783
293.74476
293.72296
293.70936
293.70127
293.69672
293.6943
293.69311
293.69256
293.69233
293.69224
293.69221
293.6922
309.68605
309.39357
309.08143
308.74896
308.39559
308.02081
307.62421
307.20548
306.76446
306.3011
305.81554
305.30811
304.77934
304.23004
303.66131
303.07462
302.47186
301.85543
301.22831
300.59414
299.95729
299.32292
298.69695
298.08601
297.49725
296.93805
296.41561
295.93649
295.50601
295.12783
294.80352
294.53246
294.31194
294.13749
294.00343
293.90344
293.83112
293.78048
293.74622
293.72388
293.7099
293.70155
293.69681
293.69429
293.69303
293.69245
293.6922
293.6921
293.69206
293.69206
309.69791
309.40595
309.09435
308.76247
308.40972
308.03559
307.63968
307.22169
306.78143
306.31887
305.83414
305.32756
304.79966
304.25124
303.68339
303.09756
302.49562
301.87995
301.2535
300.61986
299.98337
299.34915
298.72307
298.11172
297.52221
296.96191
296.43802
295.95712
295.52461
295.14421
294.81758
294.54423
294.32152
294.14507
294.00926
293.90779
293.83426
293.78267
293.74768
293.7248
293.71044
293.70182
293.69692
293.69428
293.69296
293.69234
293.69207
293.69196
293.69192
293.69191
309.70954
309.41807
309.10701
308.7757
308.42356
308.05007
307.65484
307.23756
306.79805
306.33627
305.85236
305.34661
304.81957
304.27201
303.70502
303.12004
302.51891
301.90399
301.27819
300.64508
300.00896
299.37489
298.74872
298.13698
297.54675
296.98538
296.46008
295.97746
295.54296
295.16038
294.83149
294.55587
294.33101
294.1526
294.01506
293.91212
293.8374
293.78486
293.74915
293.72574
293.71099
293.70211
293.69703
293.69428
293.69289
293.69223
293.69194
293.69183
293.69178
293.69177
309.72093
309.42996
309.11942
308.78867
308.43712
308.06427
307.6697
307.25312
306.81435
306.35334
305.87021
305.36529
304.83908
304.29238
303.72624
303.14208
302.54175
301.92757
301.30241
300.66983
300.03408
299.40017
298.77391
298.16179
297.57087
297.00847
296.48181
295.9975
295.56106
295.17635
294.84524
294.56741
294.34043
294.16007
294.02082
293.91643
293.84053
293.78706
293.75062
293.72668
293.71155
293.7024
293.69714
293.69428
293.69282
293.69213
293.69182
293.69169
293.69164
293.69163
309.7321
309.44161
309.13159
308.80139
308.45042
308.07819
307.68427
307.26838
306.83032
306.37006
305.88772
305.3836
304.85822
304.31235
303.74704
303.1637
302.56415
301.95069
301.32618
300.69412
300.05873
299.42499
298.79866
298.18619
297.5946
297.0312
296.50321
296.01726
295.57892
295.19213
294.85884
294.57883
294.34976
294.1675
294.02656
293.92074
293.84365
293.78925
293.75211
293.72763
293.71212
293.7027
293.69726
293.69429
293.69276
293.69202
293.69169
293.69156