/*--------------------------------*- C++ -*----------------------------------*\
| =========                 |                                                 |
| \\      /  F ield         | OpenFOAM: The Open Source CFD Toolbox           |
|  \\    /   O peration     | Version:  4.0                                   |
|   \\  /    A nd           | Web:      www.OpenFOAM.org                      |
|    \\/     M anipulation  |                                                 |
\*---------------------------------------------------------------------------*/
FoamFile
{
    version     2.0;
    format      ascii;
    class       volVectorField;
    location    "859";
    object      U;
}
// * * * * * * * * * * * * * * * * * * * * * * * * * * * * * * * * * * * * * //

dimensions      [0 1 -1 0 0 0 0];

internalField   nonuniform List<vector> 
5000
(
(3.5809158e-07 -1.2641597e-21 0.0026120385)
(1.3643147e-06 -3.8050458e-21 0.0076653696)
(4.0277123e-06 -6.313073e-21 0.012762091)
(7.2565801e-06 -8.6057877e-21 0.017849295)
(1.1222345e-05 -1.1676398e-20 0.022867234)
(1.5349185e-05 -1.4847176e-20 0.027750444)
(1.9096319e-05 -1.6226641e-20 0.032429514)
(2.1724073e-05 -1.4553025e-20 0.036833527)
(2.2383967e-05 -9.0052001e-21 0.040893163)
(2.0141777e-05 -2.1106274e-20 0.044544354)
(1.4047882e-05 -3.231716e-20 0.047732303)
(3.2205248e-06 -2.9301459e-20 0.050415548)
(-1.2974058e-05 -2.8909596e-20 0.052569665)
(-3.4914431e-05 -2.7895622e-20 0.054190165)
(-6.2662959e-05 -2.8168533e-20 0.055294077)
(-9.5735144e-05 -2.4405672e-20 0.055919852)
(-0.00013312337 -2.1734619e-20 0.05612533)
(-0.00017332019 -1.7769701e-20 0.055983775)
(-0.00021441418 -1.3217289e-21 0.055578265)
(-0.00025425695 2.1562825e-20 0.054994995)
(-0.00029068333 1.1608234e-20 0.054316276)
(-0.00032175424 -9.0170132e-21 0.053614133)
(-0.00034598348 -5.6024613e-21 0.052945364)
(-0.0003625088 -2.8176569e-21 0.052348705)
(-0.00037117904 -1.5188917e-21 0.051844464)
(-0.00037254207 -3.5206629e-21 0.051436521)
(-0.00036773541 1.3984308e-21 0.051116188)
(-0.00035830006 5.7214629e-20 0.05086708)
(-0.00034595089 1.5606667e-20 0.050669987)
(-0.00033234662 -1.854657e-20 0.050506826)
(-0.00031890251 -3.5966036e-20 0.050363103)
(-0.00030667862 -4.0488773e-20 0.050228754)
(-0.00029635535 -1.6817979e-20 0.050097715)
(-0.00028828304 -7.5433711e-21 0.049966776)
(-0.00028258504 -6.8166809e-21 0.049834327)
(-0.00027926491 -1.2925872e-20 0.049699358)
(-0.00027830219 -4.0195746e-20 0.049560817)
(-0.00027978045 -1.4142702e-20 0.049417352)
(-0.00028375513 -6.1164011e-21 0.049266956)
(-0.00029094992 -1.1467048e-20 0.049107264)
(-0.00030116135 1.7123443e-20 0.048934434)
(-0.00031717876 -1.0632056e-21 0.048744401)
(-0.00033731276 -8.8841058e-21 0.048530848)
(-0.00036874929 -8.416122e-20 0.048282664)
(-0.00040995608 -3.5670662e-21 0.047999401)
(-0.00046567079 0 0.047627123)
(-0.00056900297 2.7749778e-21 0.047234899)
(-0.00064173563 1.1440982e-21 0.046576262)
(-0.00095410683 3.2059551e-21 0.046390446)
(-0.00063574663 -1.588786e-21 0.040812687)
(-7.1734408e-07 -2.4623913e-21 0.0027802503)
(-5.1341124e-06 -7.2195464e-21 0.0082023639)
(-1.3940238e-05 -1.1832426e-20 0.013722926)
(-2.8794865e-05 -1.5990511e-20 0.019293976)
(-5.0992238e-05 -2.021458e-20 0.024858702)
(-8.2073987e-05 -2.2928853e-20 0.030351447)
(-0.00012377788 -2.4286371e-20 0.035698203)
(-0.00017799228 -2.7951036e-20 0.040817762)
(-0.00024668032 -1.9208692e-20 0.045623719)
(-0.0003317558 -2.9748118e-20 0.050027453)
(-0.00043489995 -3.2107304e-20 0.053942228)
(-0.00055731737 -3.7151328e-20 0.057288374)
(-0.00069943818 -6.2559258e-20 0.059999386)
(-0.00086058932 -8.2296753e-20 0.062028512)
(-0.0010386776 -1.0479027e-19 0.063355132)
(-0.0012299432 -1.1505852e-19 0.063989979)
(-0.0014288558 -1.3894429e-19 0.063978082)
(-0.0016282232 -1.4830831e-19 0.06339838)
(-0.00181956 -2.8168521e-20 0.062359299)
(-0.0019937241 1.612038e-19 0.060990237)
(-0.00214177 3.1498773e-20 0.059429763)
(-0.0022559109 -1.2739487e-19 0.05781217)
(-0.002330436 -9.8762319e-20 0.056254594)
(-0.0023624163 -9.0985623e-20 0.054846901)
(-0.0023520646 -9.6495229e-20 0.053646019)
(-0.0023026696 -1.1186501e-19 0.052675419)
(-0.0022201127 -1.321349e-19 0.051929346)
(-0.0021120511 -5.5053894e-20 0.051380514)
(-0.0019869233 4.3645387e-20 0.050989386)
(-0.0018529603 -5.0212196e-20 0.050713151)
(-0.001717379 -1.0004623e-19 0.050512787)
(-0.0015858889 -4.2398965e-20 0.050357298)
(-0.001462559 -4.9638939e-20 0.050225031)
(-0.001350005 -1.0720394e-20 0.050102683)
(-0.0012497322 -4.039325e-21 0.04998305)
(-0.0011626567 -4.3367071e-20 0.049862591)
(-0.0010892079 -1.3595405e-19 0.049739444)
(-0.001030189 -4.5497731e-20 0.049612244)
(-0.00098574087 5.7925865e-21 0.049479523)
(-0.00095730488 -8.5254802e-20 0.049338913)
(-0.00094619755 -9.0983851e-20 0.049189379)
(-0.00095101106 -2.9736628e-20 0.049022798)
(-0.00098678701 -1.4345199e-20 0.048847566)
(-0.0010229091 -4.55673e-20 0.048627148)
(-0.0011480004 1.7559413e-21 0.048420998)
(-0.0011983774 5.7913449e-22 0.048082313)
(-0.0015241104 -1.0867866e-20 0.047855099)
(-0.0015596829 -4.42023e-21 0.04748956)
(-0.0022430177 -2.0769345e-20 0.047892061)
(-0.0015684572 -2.8199925e-21 0.037417141)
(-1.2067164e-06 -1.054909e-20 0.0032055581)
(-7.8471719e-06 -3.1618999e-20 0.0094746653)
(-2.1091824e-05 -5.4007332e-20 0.015877435)
(-4.2911406e-05 -7.5288861e-20 0.022361009)
(-7.4658401e-05 -9.3978497e-20 0.028861895)
(-0.00011783484 -1.1105109e-19 0.035305643)
(-0.00017400428 -1.3513201e-19 0.041606966)
(-0.00024473579 -1.6486917e-19 0.047670517)
(-0.00033154288 -1.8115754e-19 0.053392502)
(-0.00043580331 -1.6459083e-19 0.058663374)
(-0.00055865357 -1.5979083e-19 0.063371794)
(-0.00070085366 -1.6132029e-19 0.067410023)
(-0.00086261748 -8.8661353e-20 0.070680747)
(-0.0010434079 -1.1194136e-20 0.073105145)
(-0.0012417034 5.7764333e-20 0.074631655)
(-0.0014547538 1.2948289e-19 0.075244543)
(-0.001678363 2.0447315e-19 0.074970935)
(-0.0019067535 1.9636665e-19 0.073884742)
(-0.0021325837 3.5154448e-19 0.072105896)
(-0.00234719 5.5649394e-19 0.069793827)
(-0.0025411 4.2503346e-19 0.067135037)
(-0.0027048171 6.5279984e-20 0.064325963)
(-0.0028298051 -2.3595246e-20 0.061553602)
(-0.0029095288 -8.3991967e-20 0.058977182)
(-0.0029403648 -1.2579287e-19 0.056714151)
(-0.0029221919 -1.6680073e-19 0.054832846)
(-0.0028585197 -2.1703413e-19 0.053352728)
(-0.0027561015 -1.6334011e-19 0.052251415)
(-0.0026240854 3.009302e-20 0.051476511)
(-0.0024728543 -8.3369465e-20 0.050959515)
(-0.0023127732 -7.8650297e-20 0.050629038)
(-0.0021530869 2.3698832e-19 0.050421119)
(-0.0020011604 1.3229768e-20 0.05028531)
(-0.0018622216 2.7236761e-20 0.050186407)
(-0.0017394459 6.513204e-20 0.050102732)
(-0.0016345559 8.2891656e-20 0.050022543)
(-0.0015482705 1.6522481e-19 0.049940262)
(-0.0014805532 -2.9632353e-20 0.049853065)
(-0.0014333074 -1.2163622e-19 0.049760314)
(-0.0014020294 2.9209793e-20 0.049658449)
(-0.0014016522 1.2329283e-19 0.049552016)
(-0.0014017924 -4.5995104e-20 0.049425243)
(-0.0014740237 -8.0397567e-20 0.049305682)
(-0.0014911169 -1.2981231e-19 0.049132534)
(-0.0016930364 5.9823435e-21 0.049004695)
(-0.0017129593 -1.5182212e-20 0.048751284)
(-0.0021281136 6.2633744e-20 0.04867304)
(-0.0022111609 1.1452033e-20 0.048854675)
(-0.0027350423 1.3073005e-19 0.048842473)
(-0.0017187975 -4.7000177e-21 0.033542615)
(-7.6497936e-07 -3.0789938e-20 0.0035655287)
(-5.4471685e-06 -9.3262854e-20 0.01055731)
(-1.4707681e-05 -1.5864772e-19 0.01772031)
(-3.0158726e-05 -2.3167036e-19 0.024999815)
(-5.2956329e-05 -3.1121901e-19 0.032329272)
(-8.4456797e-05 -3.744873e-19 0.039629622)
(-0.00012617126 -4.1349536e-19 0.046809042)
(-0.00017974564 -4.3573578e-19 0.053763255)
(-0.00024693416 -4.4513681e-19 0.060376655)
(-0.00032955308 -4.4655392e-19 0.06652448)
(-0.00042940668 -4.3330328e-19 0.072076319)
(-0.00054817714 -4.6656709e-19 0.076901207)
(-0.00068727075 -5.4451058e-19 0.080874458)
(-0.00084761459 -5.7877158e-19 0.083886265)
(-0.001029403 -5.198456e-19 0.085851744)
(-0.0012318021 -5.0714589e-19 0.086721749)
(-0.0014526369 -4.5513341e-19 0.086493211)
(-0.0016881029 -3.9387219e-19 0.08521731)
(-0.0019325694 -3.1736281e-19 0.083003411)
(-0.0021785518 -7.1437651e-20 0.08001681)
(-0.0024169372 -1.1333199e-19 0.076469034)
(-0.002637514 -8.8113129e-20 0.072600757)
(-0.0028298106 -1.0918243e-19 0.068659174)
(-0.0029841637 -1.4553667e-19 0.064873286)
(-0.0030928616 -2.6937459e-19 0.061431452)
(-0.0031511641 -4.2708186e-19 0.058465285)
(-0.0031579907 -5.9072703e-19 0.056042551)
(-0.003116127 -5.3734941e-19 0.054169691)
(-0.0030318916 -2.4646409e-19 0.052802553)
(-0.0029143036 -1.6367844e-19 0.051862467)
(-0.0027739007 -7.0121558e-20 0.051254196)
(-0.002621439 1.397876e-19 0.050882382)
(-0.0024667005 7.9900291e-20 0.050663883)
(-0.0023176936 7.384537e-20 0.050534579)
(-0.0021803595 1.4888764e-19 0.05045068)
(-0.0020583748 2.3968878e-19 0.050385779)
(-0.0019551495 3.8014682e-19 0.050326229)
(-0.0018693623 -8.8766176e-20 0.050265083)
(-0.0018097997 -5.4006954e-20 0.050201415)
(-0.0017600749 1.4057269e-19 0.05013006)
(-0.0017590203 4.184745e-19 0.050059228)
(-0.001737037 3.0356145e-20 0.049970593)
(-0.0018235133 3.6781751e-20 0.049895412)
(-0.0018176197 -2.1170161e-19 0.049780668)
(-0.0020293252 1.4830802e-20 0.0496995)
(-0.0020531612 1.4826917e-19 0.049569193)
(-0.0024197085 8.5862694e-20 0.049646483)
(-0.0025474857 2.4998591e-20 0.050261538)
(-0.0027797199 1.3380669e-19 0.049000447)
(-0.0014703244 1.0242883e-20 0.029702501)
(-5.975644e-07 -1.8412786e-20 0.0038529672)
(-4.343625e-06 -5.6140483e-20 0.011424439)
(-1.1733067e-05 -9.5695313e-20 0.019200589)
(-2.4084813e-05 -1.4042215e-19 0.027126284)
(-4.2347591e-05 -1.9121231e-19 0.035133818)
(-6.7646338e-05 -2.499611e-19 0.043142037)
(-0.00010125238 -2.9649053e-19 0.051055788)
(-0.00014457761 -3.2078307e-19 0.058765888)
(-0.00019916744 -3.3805241e-19 0.066149827)
(-0.00026668181 -3.7850791e-19 0.073073445)
(-0.00034885814 -3.9269167e-19 0.079393904)
(-0.00044744821 -4.0835522e-19 0.084964235)
(-0.0005641202 -5.3348609e-19 0.089639728)
(-0.0007003158 -6.8046674e-19 0.093286322)
(-0.00085705383 -7.0016653e-19 0.095790914)
(-0.001034677 -6.7881408e-19 0.097073136)
(-0.0012325485 -6.5157577e-19 0.097097654)
(-0.0014487208 -5.1400292e-19 0.09588542)
(-0.0016796232 -3.7175202e-19 0.093521757)
(-0.0019198371 -2.772648e-19 0.090158857)
(-0.0021620487 -3.1569943e-19 0.086010575)
(-0.002397264 -4.2079156e-19 0.08133837)
(-0.0026153489 -3.8818408e-19 0.076429085)
(-0.0028058904 -4.1110415e-19 0.071567308)
(-0.0029592974 -4.7897599e-19 0.067006835)
(-0.0030679726 -5.7774526e-19 0.062946409)
(-0.0031273474 -7.0304777e-19 0.05951412)
(-0.0031365697 -7.3269192e-19 0.056762817)
(-0.003098694 -7.8244031e-19 0.054676427)
(-0.0030203215 -5.6807459e-19 0.053184849)
(-0.002910727 -2.2707505e-19 0.052183824)
(-0.0027806391 -1.2062862e-19 0.051555766)
(-0.0026408917 -4.2747818e-20 0.05118793)
(-0.0025011284 1.0960881e-19 0.050985254)
(-0.0023694089 1.853253e-19 0.050876664)
(-0.0022503472 2.3877356e-19 0.050814976)
(-0.0021500959 2.1242151e-19 0.050773111)
(-0.0020642357 -1.5218837e-19 0.05073648)
(-0.0020085142 1.4896602e-19 0.050700926)
(-0.0019546711 1.7779971e-19 0.05066058)
(-0.0019581233 3.3715121e-19 0.050621802)
(-0.0019286347 9.7114521e-20 0.05057318)
(-0.0020118469 2.6343782e-19 0.050531426)
(-0.0020050642 7.4655754e-20 0.050475979)
(-0.0021860912 4.5466531e-20 0.050426964)
(-0.0022264561 1.6450275e-19 0.050419347)
(-0.0025292786 4.6551226e-20 0.050685357)
(-0.0026325603 2.9941156e-20 0.051408784)
(-0.0026352941 -3.3688786e-20 0.048468279)
(-0.0011903494 2.2455877e-21 0.026273913)
(-5.3278036e-07 -5.7335937e-21 0.0040996872)
(-3.8246761e-06 -1.7146703e-20 0.01216911)
(-1.0333792e-05 -3.0816244e-20 0.020472503)
(-2.121226e-05 -4.5144014e-20 0.028954642)
(-3.7295686e-05 -5.6957012e-20 0.037547196)
(-5.9575273e-05 -8.7147041e-20 0.046167695)
(-8.9172979e-05 -1.3690586e-19 0.054718777)
(-0.00012733872 -1.8635896e-19 0.063087919)
(-0.00017544752 -2.203152e-19 0.071147829)
(-0.00023498877 -2.5742979e-19 0.07875777)
(-0.00030754281 -2.8553163e-19 0.085766104)
(-0.00039473921 -3.1635467e-19 0.092014372)
(-0.0004981901 -3.4167053e-19 0.09734322)
(-0.00061938916 -3.6692198e-19 0.1016004)
(-0.00075956794 -4.1684357e-19 0.10465089)
(-0.00091950189 -3.8700555e-19 0.10638897)
(-0.0010992632 -3.2010526e-19 0.10675136)
(-0.0012979287 -2.1680387e-19 0.10573035)
(-0.0015132691 -6.2578999e-21 0.10338473)
(-0.0017414646 1.5219552e-20 0.099846191)
(-0.0019769212 -1.2749875e-20 0.095318457)
(-0.0022122717 -2.7229364e-19 0.090067289)
(-0.0024386459 -3.9638531e-19 0.084400783)
(-0.0026462554 -4.9094532e-19 0.078641697)
(-0.0028252747 -5.9878128e-19 0.073095757)
(-0.0029669178 -6.8050365e-19 0.068021441)
(-0.0030645387 -7.2818681e-19 0.06360678)
(-0.0031145512 -6.8766532e-19 0.059957201)
(-0.0031169809 -7.8608717e-19 0.057095811)
(-0.0030755341 -6.8663028e-19 0.054974837)
(-0.0029971468 -3.4465081e-19 0.053494934)
(-0.00289108 -1.6831117e-19 0.052528119)
(-0.002767775 -1.3558873e-19 0.051940123)
(-0.0026373058 6.0329571e-20 0.051608579)
(-0.0025092608 1.1726985e-19 0.05143477)
(-0.0023890952 1.4464964e-19 0.051347837)
(-0.0022857713 1.026858e-19 0.051303264)
(-0.0021935926 -4.7706789e-20 0.051275862)
(-0.0021323057 2.121595e-19 0.051254959)
(-0.00207039 3.12845e-19 0.051234531)
(-0.002064427 2.5888521e-19 0.051215314)
(-0.0020291714 1.1690931e-19 0.051195965)
(-0.0020915788 1.7802189e-19 0.051175757)
(-0.0020842059 1.5464593e-19 0.051161533)
(-0.0022276587 7.2928824e-20 0.051145262)
(-0.0022643467 1.0644072e-20 0.051242609)
(-0.0025154431 1.5285033e-20 0.051681849)
(-0.0025450498 1.9068431e-20 0.052203859)
(-0.0023599638 -6.9475807e-20 0.04746936)
(-0.00092189262 -1.0261236e-21 0.023453778)
(-4.6693289e-07 1.0847811e-20 0.0043136225)
(-3.3607538e-06 3.2302109e-20 0.012815467)
(-9.0836524e-06 5.2452942e-20 0.021577548)
(-1.8656872e-05 7.800678e-20 0.030544843)
(-3.2826092e-05 1.0445402e-19 0.039648817)
(-5.2479123e-05 1.1489436e-19 0.048806242)
(-7.8625985e-05 1.0371799e-19 0.057918295)
(-0.00011239834 6.3060532e-20 0.06687008)
(-0.00015504972 3.6542343e-20 0.075530779)
(-0.00020794958 6.2547422e-20 0.083754678)
(-0.00027256692 4.1991636e-20 0.091383363)
(-0.00035043936 3.5967207e-20 0.098249413)
(-0.00044312147 4.1095553e-20 0.10418191)
(-0.00055210585 4.392473e-20 0.10901409)
(-0.00067870854 -9.5704356e-20 0.11259316)
(-0.0008239112 -2.933085e-21 0.11479238)
(-0.00098815538 1.2287916e-19 0.11552468)
(-0.0011710909 1.031786e-19 0.11475682)
(-0.0013712924 1.9085921e-19 0.11252231)
(-0.001585975 2.8526527e-19 0.10893066)
(-0.0018107629 2.5452148e-19 0.1041702)
(-0.002039584 -2.8096957e-20 0.098501954)
(-0.0022647715 -2.2277499e-19 0.092243185)
(-0.0024774411 -3.5783321e-19 0.085741292)
(-0.0026681621 -4.2734984e-19 0.079341148)
(-0.0028278792 -4.0376805e-19 0.073351133)
(-0.002948957 -2.8944675e-19 0.068013971)
(-0.003026173 -1.6223154e-19 0.063487628)
(-0.0030574672 -3.4719627e-19 0.059839185)
(-0.0030443014 -5.8358994e-19 0.057051594)
(-0.0029915409 -4.932724e-19 0.055040714)
(-0.0029068398 -1.5410916e-19 0.053678476)
(-0.0027997806 -1.2214692e-19 0.052817662)
(-0.0026802261 1.1593575e-19 0.052314184)
(-0.0025584879 3.3093963e-19 0.052043757)
(-0.0024406611 1.0514854e-19 0.051910952)
(-0.0023370717 8.256335e-20 0.051850938)
(-0.002242701 1.7317427e-19 0.051824875)
(-0.0021767605 3.0859389e-20 0.051812695)
(-0.0021112138 2.4902417e-19 0.051806384)
(-0.0020943139 1.6262731e-19 0.051801217)
(-0.0020553282 7.53746e-20 0.051801356)
(-0.0020972308 -4.8669069e-20 0.051797581)
(-0.0020832926 1.0822726e-20 0.051807599)
(-0.0021971025 6.1171115e-20 0.051827699)
(-0.002218308 -1.0750209e-19 0.052016734)
(-0.0024197824 6.8517726e-20 0.052556962)
(-0.002370578 2.2051709e-20 0.052646962)
(-0.0020442466 6.8397335e-20 0.04620635)
(-0.00069846209 6.2181085e-22 0.021158928)
(-4.2780997e-07 1.4524611e-20 0.004506132)
(-3.0610946e-06 4.3487612e-20 0.013397181)
(-8.2751832e-06 7.4615827e-20 0.022572261)
(-1.6997804e-05 1.132078e-19 0.031976639)
(-2.990991e-05 1.5109947e-19 0.041541721)
(-4.782304e-05 1.9394439e-19 0.051183768)
(-7.1661964e-05 2.3930983e-19 0.060802857)
(-0.00010246538 2.6408403e-19 0.070282236)
(-0.0001413876 2.8146205e-19 0.079488275)
(-0.00018969529 3.5586285e-19 0.088271241)
(-0.00024875578 4.4337007e-19 0.096467215)
(-0.00032001339 5.1314913e-19 0.10390144)
(-0.00040494838 5.8440627e-19 0.11039351)
(-0.0005050128 5.1291115e-19 0.1157646)
(-0.00062153597 3.3470526e-19 0.1198471)
(-0.00075559197 1.6039317e-19 0.12249653)
(-0.0009078246 5.5277205e-20 0.12360536)
(-0.0010782278 -2.1677493e-19 0.12311791)
(-0.0012658904 -4.6370428e-19 0.1210446)
(-0.0014687276 -4.2490269e-19 0.1174734)
(-0.0016832374 -2.0266028e-19 0.11257555)
(-0.0019043443 -8.1372647e-20 0.1066029)
(-0.0021254025 -1.3750426e-19 0.099874658)
(-0.0023384275 -1.9053113e-19 0.09275354)
(-0.0025346003 -2.3503586e-19 0.085613443)
(-0.0027050275 -2.3060325e-19 0.078803367)
(-0.00284168 -2.0817367e-19 0.072613854)
(-0.0029383645 -1.1230267e-19 0.067252012)
(-0.0029915515 4.3111224e-20 0.062829303)
(-0.0030009056 -1.7300464e-19 0.059363253)
(-0.0029694163 -1.6794897e-19 0.056791305)
(-0.0029030377 -3.5037192e-20 0.054992985)
(-0.0028101185 1.6772412e-20 0.053815742)
(-0.0026998714 1.3915921e-19 0.053100014)
(-0.0025826415 3.4411828e-19 0.052699847)
(-0.0024652354 3.381689e-19 0.052496511)
(-0.0023584128 3.9918372e-19 0.052403941)
(-0.0022592951 4.8566539e-19 0.052367352)
(-0.002185083 2.2393426e-19 0.052355493)
(-0.0021130583 3.0375361e-19 0.052355271)
(-0.0020833461 2.0204519e-19 0.052358166)
(-0.002036644 2.4081972e-19 0.052368083)
(-0.0020602692 -3.5008135e-19 0.052375247)
(-0.0020354018 -1.3014205e-19 0.052399574)
(-0.0021241728 2.7045085e-20 0.052455673)
(-0.002129413 -9.6248123e-20 0.052722982)
(-0.0022793758 8.3423612e-20 0.0532723)
(-0.0021625098 4.0883563e-20 0.052784182)
(-0.0017394126 1.0689475e-19 0.044840996)
(-0.00052586261 2.5249459e-20 0.01933361)
(-3.8862931e-07 -1.7010673e-20 0.00468015)
(-2.7841876e-06 -5.0158312e-20 0.013923301)
(-7.5284892e-06 -8.267749e-20 0.023472388)
(-1.5469802e-05 -1.1603693e-19 0.033273082)
(-2.7233567e-05 -1.5427159e-19 0.043256902)
(-4.3567017e-05 -1.7569086e-19 0.053339837)
(-6.5324428e-05 -1.8268151e-19 0.063421186)
(-9.3468882e-05 -2.2247833e-19 0.073382769)
(-0.00012907536 -2.6031682e-19 0.083088696)
(-0.00017332973 -3.0265402e-19 0.092385933)
(-0.00022752054 -3.0669871e-19 0.10110595)
(-0.00029302035 -3.3317015e-19 0.10906781)
(-0.00037125231 -3.8033261e-19 0.11608298)
(-0.00046363608 -3.1653259e-19 0.12196231)
(-0.00057150709 -1.7020465e-19 0.12652536)
(-0.00069600191 -4.2625386e-19 0.12961215)
(-0.0008379043 -6.8110922e-19 0.1310971)
(-0.00099744929 -8.2439292e-19 0.13090441)
(-0.0011740901 -1.0730699e-18 0.1290233)
(-0.0013662444 -1.1596708e-18 0.1255212)
(-0.0015710509 -1.0088583e-18 0.12055189)
(-0.0017841868 -5.7707083e-19 0.11435573)
(-0.0019998114 -3.2914658e-19 0.10724952)
(-0.0022107017 -1.893596e-19 0.099605092)
(-0.0024086326 -8.2860378e-20 0.091817963)
(-0.0025850098 -3.0624792e-19 0.084270302)
(-0.0027317018 -4.6271268e-19 0.077294182)
(-0.0028419599 -1.9398138e-19 0.071141764)
(-0.0029112712 2.6172402e-19 0.065967565)
(-0.002937985 2.2308167e-19 0.061825143)
(-0.0029236089 3.1589983e-19 0.058677332)
(-0.0028726448 1.6542374e-19 0.056416627)
(-0.0027922252 1.3755674e-19 0.054891129)
(-0.0026907988 1.5435551e-19 0.053931357)
(-0.002578326 8.9385917e-20 0.053373875)
(-0.0024621112 3.8536219e-19 0.053078798)
(-0.0023528609 6.2989686e-19 0.05293907)
(-0.002249641 3.385189e-19 0.052882354)
(-0.002168067 2.7604056e-19 0.052864797)
(-0.002089255 2.6070839e-19 0.052865436)
(-0.0020483022 -2.0113445e-20 0.05287229)
(-0.0019928426 1.4923609e-19 0.052886336)
(-0.0020003806 -2.4235402e-19 0.052899723)
(-0.0019651454 -1.720427e-19 0.052935052)
(-0.0020305003 6.6840677e-21 0.053024805)
(-0.0020223776 7.2826212e-21 0.05335043)
(-0.0021199675 4.4051606e-21 0.053821842)
(-0.0019496604 3.071828e-20 0.052680745)
(-0.0014661979 -4.1894381e-20 0.043474595)
(-0.00039446914 1.9695447e-20 0.017896913)
(-3.6036667e-07 -2.0645642e-20 0.0048401418)
(-2.5761755e-06 -6.1887733e-20 0.014407106)
(-6.9668902e-06 -1.0558105e-19 0.024300293)
(-1.4317563e-05 -1.5153514e-19 0.034465822)
(-2.5209042e-05 -2.0042096e-19 0.044835413)
(-4.0336033e-05 -2.529593e-19 0.055324917)
(-6.0494091e-05 -3.0385616e-19 0.065833061)
(-8.6582064e-05 -3.536334e-19 0.07624052)
(-0.00011960595 -4.0402657e-19 0.086409539)
(-0.00016067953 -4.5742777e-19 0.096184302)
(-0.00021101866 -5.1243397e-19 0.10539236)
(-0.00027192656 -5.5452729e-19 0.11384746)
(-0.0003447665 -6.3239538e-19 0.12135404)
(-0.000430916 -7.6622887e-19 0.12771397)
(-0.00053169721 -8.297836e-19 0.13273553)
(-0.00064827673 -8.4038003e-19 0.13624507)
(-0.0007815291 -9.0089901e-19 0.13810089)
(-0.00093186007 -9.5247779e-19 0.13820897)
(-0.0010989929 -9.8933646e-19 0.13653901)
(-0.0012817285 -1.0242878e-18 0.13313901)
(-0.0014777062 -9.6175763e-19 0.12814539)
(-0.0016832067 -7.3032945e-19 0.12178583)
(-0.0018930552 -5.2619826e-19 0.11437195)
(-0.0021006886 -3.513233e-19 0.10628034)
(-0.0022984422 -1.7209193e-19 0.097922652)
(-0.0024780763 -4.9448435e-20 0.089708272)
(-0.0026315118 -2.0282222e-19 0.082005343)
(-0.0027516887 -2.6964459e-19 0.075106961)
(-0.0028334092 7.0888354e-20 0.069208538)
(-0.0028740164 3.3706468e-19 0.064399681)
(-0.002873799 3.0952406e-19 0.060670639)
(-0.0028359847 2.0347004e-19 0.057930474)
(-0.0027665285 1.4934293e-19 0.056032465)
(-0.002673037 1.3003255e-19 0.054801908)
(-0.0025649029 1.520982e-19 0.054061972)
(-0.0024496353 3.4240913e-19 0.05365435)
(-0.0023378974 5.557614e-19 0.053452145)
(-0.0022301501 3.4900049e-19 0.053364915)
(-0.002141312 2.0893632e-19 0.053335009)
(-0.0020551503 1.6724264e-19 0.053331847)
(-0.0020034735 -9.2843306e-20 0.053338802)
(-0.0019395804 2.0428104e-20 0.053353686)
(-0.0019319698 -2.0573984e-19 0.053370031)
(-0.0018888046 -1.4813399e-19 0.053416009)
(-0.0019319605 -1.1602188e-21 0.053536143)
(-0.0019134023 1.0878027e-20 0.053894142)
(-0.0019612327 -3.9601242e-20 0.054215656)
(-0.0017515033 8.086546e-21 0.052398359)
(-0.0012358118 -7.0515526e-20 0.042159459)
(-0.00029715674 6.619478e-21 0.01675949)
(-3.3455602e-07 -2.6283931e-20 0.0049880745)
(-2.392072e-06 -7.9049823e-20 0.014854578)
(-6.4700614e-06 -1.358604e-19 0.025066259)
(-1.3299431e-05 -1.972736e-19 0.035569733)
(-2.3422607e-05 -2.5174341e-19 0.046296999)
(-3.7489465e-05 -3.1083807e-19 0.057163896)
(-5.6245696e-05 -3.7231182e-19 0.068068745)
(-8.053566e-05 -4.0332781e-19 0.078891313)
(-0.00011130725 -4.3512869e-19 0.08949229)
(-0.00014961352 -4.199231e-19 0.099713489)
(-0.00019660874 -3.3498523e-19 0.10937907)
(-0.00025353702 -2.4699796e-19 0.11829813)
(-0.0003217093 -1.1448621e-19 0.12626894)
(-0.00040246412 -2.4634374e-19 0.1330854)
(-0.00049710663 -5.216184e-19 0.13854576)
(-0.00060682003 -5.70156e-19 0.14246408)
(-0.00073254291 -5.2410306e-19 0.14468411)
(-0.00087480863 -2.4418588e-19 0.14509516)
(-0.0010335481 -8.2497105e-20 0.14364885)
(-0.0012078631 8.0819685e-20 0.14037475)
(-0.0013957923 -3.5252068e-19 0.13539228)
(-0.0015941071 -5.2124074e-19 0.12891578)
(-0.0017981868 -6.1091442e-19 0.12124982)
(-0.002002035 -7.1328832e-19 0.1127726)
(-0.002198493 -9.1180664e-19 0.10390772)
(-0.0023796804 -6.0150913e-19 0.095087073)
(-0.0025376481 -2.426087e-21 0.086710263)
(-0.002665174 -5.7363801e-20 0.079107584)
(-0.0027565851 -4.1294564e-19 0.072513015)
(-0.0028084628 9.1748085e-20 0.067051573)
(-0.00282012 2.5857085e-19 0.062741942)
(-0.0027937116 2.4971703e-19 0.059512161)
(-0.0027341431 2.600482e-19 0.057224061)
(-0.0026481815 3.5311585e-19 0.055701503)
(-0.0025446014 5.2475128e-19 0.054757863)
(-0.002430851 3.6192776e-19 0.054219193)
(-0.0023175178 5.253502e-19 0.053940293)
(-0.0022060467 8.2108951e-19 0.053812818)
(-0.0021108728 4.509232e-19 0.053764366)
(-0.0020182384 1.6911775e-19 0.05375368)
(-0.0019566476 1.1148234e-19 0.053757888)
(-0.0018858596 -1.0389697e-19 0.053771934)
(-0.0018641709 -4.1591617e-19 0.053790001)
(-0.0018156338 -1.7793552e-19 0.053847148)
(-0.0018383087 -1.0932152e-20 0.053993391)
(-0.0018111349 1.5490366e-20 0.054355291)
(-0.001814362 -4.0062548e-20 0.054472989)
(-0.0015760218 -6.1816995e-21 0.051990568)
(-0.0010481077 -8.9214881e-20 0.040923301)
(-0.00022631731 -4.9364838e-21 0.01585545)
(-3.1373068e-07 -1.0376188e-20 0.0051261177)
(-2.2412132e-06 -3.1411883e-20 0.015272205)
(-6.0625907e-06 -5.3933205e-20 0.025781265)
(-1.2463288e-05 -7.7728061e-20 0.036600439)
(-2.1953308e-05 -1.0237842e-19 0.047662054)
(-3.5144214e-05 -1.2819575e-19 0.058882015)
(-5.2738794e-05 -1.5378781e-19 0.070158361)
(-7.5534369e-05 -1.7995663e-19 0.081370127)
(-0.00010442778 -2.1211791e-19 0.092376685)
(-0.00014041799 -2.3645623e-19 0.1030178)
(-0.0001846038 -2.389771e-19 0.11311467)
(-0.00023817479 -2.2619955e-19 0.12247227)
(-0.00030239199 -2.1325053e-19 0.13088341)
(-0.00037855389 -2.1429794e-19 0.13813484)
(-0.00046794279 -2.4167162e-19 0.14401582)
(-0.00057174572 -2.5716652e-19 0.14832929)
(-0.00069094376 -2.5079737e-19 0.15090572)
(-0.00082616535 -2.278194e-19 0.15161913)
(-0.00097750283 -2.0255278e-19 0.15040431)
(-0.0011442991 -2.2540839e-19 0.14727336)
(-0.0013249204 -2.4399099e-19 0.14232916)
(-0.0015165482 -3.8653586e-19 0.13577242)
(-0.001715035 -4.8306159e-19 0.12789933)
(-0.0019148821 -5.1312062e-19 0.11908737)
(-0.0021093937 -5.1934026e-19 0.10976883)
(-0.0022910456 -5.0218555e-19 0.1003942)
(-0.0024520653 -3.0826391e-19 0.091390676)
(-0.0025851682 -2.1352436e-20 0.083122365)
(-0.0026843502 1.3977261e-20 0.075859483)
(-0.0027456038 4.5855063e-21 0.069761446)
(-0.0027674448 1.9490631e-19 0.064875744)
(-0.0027511092 2.4827159e-19 0.061150982)
(-0.0027005663 2.7517951e-19 0.058460046)
(-0.0026217708 3.6721419e-19 0.056628401)
(-0.0025228601 5.0068935e-19 0.055462736)
(-0.0024110899 4.8441975e-19 0.054776147)
(-0.0022968503 5.1109759e-19 0.054406898)
(-0.0021824849 7.970497e-19 0.054229452)
(-0.0020817274 5.6413439e-19 0.054156179)
(-0.0019836677 2.477638e-19 0.054134378)
(-0.0019129503 1.4476464e-19 0.054133678)
(-0.0018367669 -1.6003566e-19 0.054146005)
(-0.0018023737 -4.3670249e-19 0.054166042)
(-0.0017502015 -2.0831853e-19 0.054234689)
(-0.0017546782 -1.8066413e-20 0.054401433)
(-0.0017194303 1.6998149e-20 0.054739062)
(-0.0016843881 -3.2722518e-20 0.054615165)
(-0.0014252633 -1.6261556e-20 0.051498655)
(-0.00089834754 -8.0301345e-20 0.039774643)
(-0.00017546589 -1.1754934e-20 0.015126826)
(-2.9526728e-07 -3.138554e-21 0.0052556112)
(-2.1088941e-06 -9.5906751e-21 0.015664036)
(-5.7052423e-06 -1.6809309e-20 0.02645224)
(-1.1730324e-05 -2.5212593e-20 0.037567906)
(-2.0665849e-05 -3.792963e-20 0.048943734)
(-3.3090194e-05 -5.1273428e-20 0.060495762)
(-4.9668898e-05 -6.5661972e-20 0.072121849)
(-7.1158194e-05 -1.0892848e-19 0.083700437)
(-9.8410603e-05 -1.5122622e-19 0.095089781)
(-0.00013237795 -1.9907965e-19 0.10612785)
(-0.00017411034 -3.0079904e-19 0.11663322)
(-0.00022474907 -4.1176694e-19 0.1264072)
(-0.00028551012 -5.2141173e-19 0.13523767)
(-0.00035765447 -4.6399894e-19 0.14290495)
(-0.00044244054 -2.180648e-19 0.14919011)
(-0.00054105281 -1.9911328e-19 0.15388597)
(-0.00065450127 -1.5993772e-19 0.1568108)
(-0.00078348663 -2.7924998e-19 0.15782449)
(-0.00092822976 -2.8642007e-19 0.15684607)
(-0.0010882699 -3.5422937e-19 0.15387114)
(-0.0012622451 -1.028644e-19 0.1489865)
(-0.0014476828 -1.8861005e-19 0.14237913)
(-0.0016408428 -2.2536714e-19 0.13433598)
(-0.001836664 -1.576729e-19 0.12523201)
(-0.0020288719 2.200494e-20 0.11550555)
(-0.0022102858 -2.1795461e-20 0.10562255)
(-0.0023733346 -4.709385e-19 0.096034415)
(-0.0025107376 -2.0015197e-19 0.087136072)
(-0.0026162654 3.1444195e-19 0.079231742)
(-0.0026854556 2.0353592e-19 0.072514078)
(-0.0027161746 2.7283593e-19 0.067059358)
(-0.0027088781 2.8936432e-19 0.062837785)
(-0.0026667092 3.1459499e-19 0.059735175)
(-0.0025948712 3.2667319e-19 0.057581017)
(-0.0025008536 2.0904974e-19 0.05617793)
(-0.0023916779 4.7771116e-19 0.055328496)
(-0.0022773606 5.6028101e-19 0.054856259)
(-0.0021611544 5.1260799e-19 0.054619465)
(-0.0020557896 3.1876047e-19 0.054515236)
(-0.0019534803 1.9653594e-19 0.054478824)
(-0.0018747366 -1.1198121e-19 0.054471595)
(-0.0017943991 -1.3566697e-19 0.054481827)
(-0.0017490619 -9.1140485e-20 0.054504857)
(-0.00169416 -1.9378664e-19 0.054584746)
(-0.0016830334 -2.8916385e-20 0.054764956)
(-0.0016395768 1.4396616e-20 0.055052427)
(-0.0015725975 -1.8571537e-20 0.054662047)
(-0.0012982959 -1.2777675e-20 0.050952727)
(-0.0007804077 -6.7625429e-20 0.038712018)
(-0.00013940805 -1.3790242e-20 0.014528097)
(-2.7944943e-07 -1.2449455e-20 0.0053777761)
(-1.9950594e-06 -3.7169466e-20 0.01603374)
(-5.3976945e-06 -6.3951285e-20 0.027085418)
(-1.1099112e-05 -9.2987207e-20 0.038481048)
(-1.9556412e-05 -1.2150973e-19 0.050153731)
(-3.1318879e-05 -1.5345045e-19 0.062019692)
(-4.7019266e-05 -1.8389716e-19 0.073976686)
(-6.7377705e-05 -2.1686227e-19 0.085902677)
(-9.3207407e-05 -2.6010712e-19 0.097654958)
(-0.00012541812 -2.9809321e-19 0.10906993)
(-0.00016501617 -3.3103689e-19 0.1199638)
(-0.00021309893 -3.865317e-19 0.1301346)
(-0.00027084057 -4.1613865e-19 0.13936574)
(-0.00033946615 -4.436757e-19 0.14743168)
(-0.00042020909 -4.2849855e-19 0.15410601)
(-0.00051424634 -3.8366214e-19 0.15917225)
(-0.00062260664 -3.8509801e-19 0.16243744)
(-0.00074604603 -3.9195766e-19 0.16374829)
(-0.00088488855 -3.8081491e-19 0.1630091)
(-0.0010388353 -3.0751693e-19 0.16019976)
(-0.0012067525 -2.0125972e-19 0.15539158)
(-0.001386464 -8.2729812e-20 0.14875785)
(-0.0015745842 -4.1877923e-20 0.14057563)
(-0.0017664414 3.1839277e-20 0.13121599)
(-0.0019561461 9.9586861e-20 0.12112121)
(-0.0021368466 9.3733545e-20 0.11077)
(-0.0023011877 -1.0439738e-19 0.1006351)
(-0.0024419395 -1.448838e-19 0.091139563)
(-0.0025527257 1.1932502e-19 0.082619509)
(-0.0026287309 2.3798294e-19 0.075299585)
(-0.0026672868 3.0159106e-19 0.069284585)
(-0.0026681845 3.087281e-19 0.064566955)
(-0.0026338362 3.0884816e-19 0.061046841)
(-0.002568761 2.9032289e-19 0.058559689)
(-0.0024797991 2.7034619e-19 0.056906255)